# vtk DataFile Version 2.0
NDG-FEM NonhydrostaticStandingWave2d Simulation
ASCII
DATASET UNSTRUCTURED_GRID

POINTS 405 double
0.00000000000000000000  0.00000000000000000000  0.00000000000000000000
1.00000000000000000000  0.00000000000000000000  0.00000000000000000000
2.00000000000000000000  0.00000000000000000000  0.00000000000000000000
0.00000000000000000000  1.00000000000000000000  0.00000000000000000000
1.00000000000000000000  1.00000000000000000000  0.00000000000000000000
2.00000000000000000000  1.00000000000000000000  0.00000000000000000000
0.00000000000000000000  2.00000000000000000000  0.00000000000000000000
1.00000000000000000000  2.00000000000000000000  0.00000000000000000000
2.00000000000000000000  2.00000000000000000000  0.00000000000000000000
2.00000000000000000000  0.00000000000000000000  0.00000000000000000000
3.00000000000000000000  0.00000000000000000000  0.00000000000000000000
4.00000000000000000000  0.00000000000000000000  0.00000000000000000000
2.00000000000000000000  1.00000000000000000000  0.00000000000000000000
3.00000000000000000000  1.00000000000000000000  0.00000000000000000000
4.00000000000000000000  1.00000000000000000000  0.00000000000000000000
2.00000000000000000000  2.00000000000000000000  0.00000000000000000000
3.00000000000000000000  2.00000000000000000000  0.00000000000000000000
4.00000000000000000000  2.00000000000000000000  0.00000000000000000000
4.00000000000000000000  0.00000000000000000000  0.00000000000000000000
5.00000000000000000000  0.00000000000000000000  0.00000000000000000000
6.00000000000000000000  0.00000000000000000000  0.00000000000000000000
4.00000000000000000000  1.00000000000000000000  0.00000000000000000000
5.00000000000000000000  1.00000000000000000000  0.00000000000000000000
6.00000000000000000000  1.00000000000000000000  0.00000000000000000000
4.00000000000000000000  2.00000000000000000000  0.00000000000000000000
5.00000000000000000000  2.00000000000000000000  0.00000000000000000000
6.00000000000000000000  2.00000000000000000000  0.00000000000000000000
6.00000000000000000000  0.00000000000000000000  0.00000000000000000000
7.00000000000000000000  0.00000000000000000000  0.00000000000000000000
8.00000000000000000000  0.00000000000000000000  0.00000000000000000000
6.00000000000000000000  1.00000000000000000000  0.00000000000000000000
7.00000000000000000000  1.00000000000000000000  0.00000000000000000000
8.00000000000000000000  1.00000000000000000000  0.00000000000000000000
6.00000000000000000000  2.00000000000000000000  0.00000000000000000000
7.00000000000000000000  2.00000000000000000000  0.00000000000000000000
8.00000000000000000000  2.00000000000000000000  0.00000000000000000000
8.00000000000000000000  0.00000000000000000000  0.00000000000000000000
9.00000000000000000000  0.00000000000000000000  0.00000000000000000000
10.00000000000000000000  0.00000000000000000000  0.00000000000000000000
8.00000000000000000000  1.00000000000000000000  0.00000000000000000000
9.00000000000000000000  1.00000000000000000000  0.00000000000000000000
10.00000000000000000000  1.00000000000000000000  0.00000000000000000000
8.00000000000000000000  2.00000000000000000000  0.00000000000000000000
9.00000000000000000000  2.00000000000000000000  0.00000000000000000000
10.00000000000000000000  2.00000000000000000000  0.00000000000000000000
10.00000000000000000000  0.00000000000000000000  0.00000000000000000000
11.00000000000000000000  0.00000000000000000000  0.00000000000000000000
12.00000000000000000000  0.00000000000000000000  0.00000000000000000000
10.00000000000000000000  1.00000000000000000000  0.00000000000000000000
11.00000000000000000000  1.00000000000000000000  0.00000000000000000000
12.00000000000000000000  1.00000000000000000000  0.00000000000000000000
10.00000000000000000000  2.00000000000000000000  0.00000000000000000000
11.00000000000000000000  2.00000000000000000000  0.00000000000000000000
12.00000000000000000000  2.00000000000000000000  0.00000000000000000000
12.00000000000000000000  0.00000000000000000000  0.00000000000000000000
13.00000000000000000000  0.00000000000000000000  0.00000000000000000000
14.00000000000000000000  0.00000000000000000000  0.00000000000000000000
12.00000000000000000000  1.00000000000000000000  0.00000000000000000000
13.00000000000000000000  1.00000000000000000000  0.00000000000000000000
14.00000000000000000000  1.00000000000000000000  0.00000000000000000000
12.00000000000000000000  2.00000000000000000000  0.00000000000000000000
13.00000000000000000000  2.00000000000000000000  0.00000000000000000000
14.00000000000000000000  2.00000000000000000000  0.00000000000000000000
14.00000000000000000000  0.00000000000000000000  0.00000000000000000000
15.00000000000000000000  0.00000000000000000000  0.00000000000000000000
16.00000000000000000000  0.00000000000000000000  0.00000000000000000000
14.00000000000000000000  1.00000000000000000000  0.00000000000000000000
15.00000000000000000000  1.00000000000000000000  0.00000000000000000000
16.00000000000000000000  1.00000000000000000000  0.00000000000000000000
14.00000000000000000000  2.00000000000000000000  0.00000000000000000000
15.00000000000000000000  2.00000000000000000000  0.00000000000000000000
16.00000000000000000000  2.00000000000000000000  0.00000000000000000000
16.00000000000000000000  0.00000000000000000000  0.00000000000000000000
17.00000000000000000000  0.00000000000000000000  0.00000000000000000000
18.00000000000000000000  0.00000000000000000000  0.00000000000000000000
16.00000000000000000000  1.00000000000000000000  0.00000000000000000000
17.00000000000000000000  1.00000000000000000000  0.00000000000000000000
18.00000000000000000000  1.00000000000000000000  0.00000000000000000000
16.00000000000000000000  2.00000000000000000000  0.00000000000000000000
17.00000000000000000000  2.00000000000000000000  0.00000000000000000000
18.00000000000000000000  2.00000000000000000000  0.00000000000000000000
18.00000000000000000000  0.00000000000000000000  0.00000000000000000000
19.00000000000000000000  0.00000000000000000000  0.00000000000000000000
20.00000000000000000000  0.00000000000000000000  0.00000000000000000000
18.00000000000000000000  1.00000000000000000000  0.00000000000000000000
19.00000000000000000000  1.00000000000000000000  0.00000000000000000000
20.00000000000000000000  1.00000000000000000000  0.00000000000000000000
18.00000000000000000000  2.00000000000000000000  0.00000000000000000000
19.00000000000000000000  2.00000000000000000000  0.00000000000000000000
20.00000000000000000000  2.00000000000000000000  0.00000000000000000000
20.00000000000000000000  0.00000000000000000000  0.00000000000000000000
21.00000000000000000000  0.00000000000000000000  0.00000000000000000000
22.00000000000000000000  0.00000000000000000000  0.00000000000000000000
20.00000000000000000000  1.00000000000000000000  0.00000000000000000000
21.00000000000000000000  1.00000000000000000000  0.00000000000000000000
22.00000000000000000000  1.00000000000000000000  0.00000000000000000000
20.00000000000000000000  2.00000000000000000000  0.00000000000000000000
21.00000000000000000000  2.00000000000000000000  0.00000000000000000000
22.00000000000000000000  2.00000000000000000000  0.00000000000000000000
22.00000000000000000000  0.00000000000000000000  0.00000000000000000000
23.00000000000000000000  0.00000000000000000000  0.00000000000000000000
24.00000000000000000000  0.00000000000000000000  0.00000000000000000000
22.00000000000000000000  1.00000000000000000000  0.00000000000000000000
23.00000000000000000000  1.00000000000000000000  0.00000000000000000000
24.00000000000000000000  1.00000000000000000000  0.00000000000000000000
22.00000000000000000000  2.00000000000000000000  0.00000000000000000000
23.00000000000000000000  2.00000000000000000000  0.00000000000000000000
24.00000000000000000000  2.00000000000000000000  0.00000000000000000000
24.00000000000000000000  0.00000000000000000000  0.00000000000000000000
25.00000000000000000000  0.00000000000000000000  0.00000000000000000000
26.00000000000000000000  0.00000000000000000000  0.00000000000000000000
24.00000000000000000000  1.00000000000000000000  0.00000000000000000000
25.00000000000000000000  1.00000000000000000000  0.00000000000000000000
26.00000000000000000000  1.00000000000000000000  0.00000000000000000000
24.00000000000000000000  2.00000000000000000000  0.00000000000000000000
25.00000000000000000000  2.00000000000000000000  0.00000000000000000000
26.00000000000000000000  2.00000000000000000000  0.00000000000000000000
26.00000000000000000000  0.00000000000000000000  0.00000000000000000000
27.00000000000000000000  0.00000000000000000000  0.00000000000000000000
28.00000000000000000000  0.00000000000000000000  0.00000000000000000000
26.00000000000000000000  1.00000000000000000000  0.00000000000000000000
27.00000000000000000000  1.00000000000000000000  0.00000000000000000000
28.00000000000000000000  1.00000000000000000000  0.00000000000000000000
26.00000000000000000000  2.00000000000000000000  0.00000000000000000000
27.00000000000000000000  2.00000000000000000000  0.00000000000000000000
28.00000000000000000000  2.00000000000000000000  0.00000000000000000000
28.00000000000000000000  0.00000000000000000000  0.00000000000000000000
29.00000000000000000000  0.00000000000000000000  0.00000000000000000000
30.00000000000000000000  0.00000000000000000000  0.00000000000000000000
28.00000000000000000000  1.00000000000000000000  0.00000000000000000000
29.00000000000000000000  1.00000000000000000000  0.00000000000000000000
30.00000000000000000000  1.00000000000000000000  0.00000000000000000000
28.00000000000000000000  2.00000000000000000000  0.00000000000000000000
29.00000000000000000000  2.00000000000000000000  0.00000000000000000000
30.00000000000000000000  2.00000000000000000000  0.00000000000000000000
0.00000000000000000000  2.00000000000000000000  0.00000000000000000000
1.00000000000000000000  2.00000000000000000000  0.00000000000000000000
[...]
POINT_DATA 405
SCALARS  H  double
LOOKUP_TABLE default
      7.704175746053 
      7.699658714180 
      7.685881206173 
      7.704482761822 
      7.699606558678 
      7.686069587541 
      7.704265077610 
      7.699639470241 
      7.686009041269 
      7.686283846962 
      7.665261932052 
      7.639171140236 
      7.686369635517 
      7.665238736045 
      7.639178618285 
      7.686348180794 
      7.665244862026 
      7.639166625058 
      7.639474870454 
      7.610854803769 
      7.582657168018 
      7.639482289253 
      7.610855153093 
      7.582659986969 
      7.639460540310 
      7.610852797850 
      7.582674108104 
      7.582893288221 
      7.557974580999 
      7.538226980774 
      7.582897959633 
      7.557974982642 
      7.538225290049 
      7.582911567897 
      7.557972586760 
      7.538223297373 
      7.538356174825 
      7.526003727586 
      7.521528665691 
      7.538354714793 
      7.526004237125 
      7.521528695931 
      7.538352754801 
      7.526005525653 
      7.521528972415 
      7.521528245326 
      7.525996736864 
      7.538334258660 
      7.521527802891 
      7.525996583708 
      7.538334560649 
      7.521527089300 
      7.525996058777 
      7.538335414792 
      7.538206822297 
      7.557982084115 
      7.582978645605 
      7.538207103161 
      7.557981985925 
      7.582978672188 
      7.538207910757 
      7.557981729950 
      7.582978802733 
      7.582733972091 
      7.610950523877 
      7.639598915883 
      7.582734079982 
      7.610950521063 
      7.639598890604 
      7.582734365838 
      7.610950510720 
      7.639598918115 
      7.639302459578 
      7.665371393083 
      7.686480708737 
      7.639302492266 
      7.665371372112 
      7.686480636426 
      7.639302566132 
      7.665371302929 
      7.686480829890 
      7.686268830257 
      7.699701696083 
      7.704566710998 
      7.686268885164 
      7.699701714330 
      7.704566062505 
      7.686269238353 
      7.699701508905 
      7.704565178628 
      7.704561682697 
      7.699682966991 
      7.686263669164 
      7.704561299501 
      7.699683568381 
      7.686261869659 
      7.704561278023 
      7.699684651573 
      7.686258597983 
      7.686479625319 
      7.665386908540 
      7.639356512578 
      7.686477486970 
      7.665388259201 
      7.639356245075 
      7.686474422450 
      7.665389851888 
      7.639356198174 
      7.639658711609 
      7.611038462121 
      7.582821920301 
      7.639654384976 
      7.611039830229 
      7.582844258782 
      7.639650451147 
      7.611043776384 
      7.582857247685 
      7.583078300389 
      7.558142209914 
      7.538272312378 
      7.583092532353 
      7.558115239501 
      7.538326727771 
      7.583094390953 
      7.558098043551 
      7.538315122418 
      7.538480340947 
      7.526122903298 
      7.521504696378 
      7.538526910814 
      7.526059684319 
      7.521653716301 
      7.538550914941 
      7.526053472504 
      7.521755350972 
      7.704256180626 
      7.699635102674 
      7.685986351885 
      7.704215490450 
      7.699648641269 
      7.685979055823 
      7.704413620260 
      7.699634870879 
      7.686024859991 
      7.686342139335 
      7.665249314930 
      7.639165703225 
      7.686333413561 
      7.665246475251 
      7.639168494218 
      7.686341283655 
      7.665233211110 
      7.639186513333 
      7.639458140278 
      7.610852191586 
      7.582674167559 
      7.639453519983 
      7.610849183518 
      7.582684527997 
      7.639472722643 
      7.610846360109 
      7.582689322614 
      7.582911005258 
      7.557972649349 
      7.538223805891 
      7.582924837508 
      7.557971458706 
      7.538220042238 
      7.582935984824 
      7.557969336548 
      7.538216845884 
      7.538353059982 
      7.526005352184 
      7.521529089599 
      7.538350845137 
      7.526006923769 
      7.521528765211 
      7.538351005648 
      7.526008687598 
      7.521526952444 
      7.521527265918 
      7.525996055614 
      7.538335372975 
      7.521526297331 
      7.525995720342 
      7.538335893317 
      7.521524496005 
      7.525996001868 
      7.538335888494 
      7.538207895795 
      7.557981748102 
      7.582978782264 
      7.538208438481 
      7.557981619841 
      7.582978753662 
      7.538208258040 
      7.557981561201 
      7.582978844663 
      7.582734340463 
      7.610950515547 
      7.639598916320 
      7.582734402117 
      7.610950563801 
      7.639599072465 
      7.582734453468 
      7.610950519454 
      7.639599292684 
      7.639302552572 
      7.665371306069 
      7.686480852856 
      7.639302590245 
      7.665371100424 
      7.686481527636 
      7.639302803032 
      7.665370880480 
      7.686481597133 
      7.686269231701 
      7.699701503564 
      7.704565351584 
      7.686269983304 
      7.699701085236 
      7.704564332574 
      7.686270471732 
      7.699701214645 
      7.704561741887 
      7.704561386178 
      7.699684472156 
      7.686258917322 
      7.704561286516 
      7.699685997692 
      7.686257717374 
      7.704559625163 
      7.699688248143 
      7.686257748112 
      7.686474847293 
      7.665389769467 
      7.639355817691 
      7.686472931505 
      7.665387951166 
      7.639365924662 
      7.686471384499 
      7.665384541804 
      7.639371185101 
      7.639650680968 
      7.611043670765 
      7.582855647895 
      7.639659924451 
      7.611041619371 
      7.582853752766 
      7.639665262871 
      7.611048068272 
      7.582827003107 
      7.583095307383 
      7.558098583601 
      7.538312601881 
      7.583100314113 
      7.558090913560 
      7.538303838652 
      7.583073573205 
      7.558103964956 
      7.538333777785 
      7.538543708244 
      7.526064733427 
      7.521718539615 
      7.538574334098 
      7.526062394049 
      7.521831896815 
      7.538542229947 
      7.526053523389 
      7.521708423104 
      7.704360018115 
      7.699638137390 
      7.686016102566 
      7.704241663426 
      7.699650251520 
      7.685978567893 
      7.704449396968 
      7.699619264624 
      7.686034459735 
      7.686339472081 
      7.665234934196 
      7.639181800893 
      7.686295050964 
      7.665240689688 
      7.639196626429 
      7.686324428932 
      7.665228147789 
      7.639204073750 
      7.639467295278 
      7.610846910369 
      7.582689775611 
      7.639476100018 
      7.610846676337 
      7.582693673215 
      7.639494283681 
      7.610847174119 
      7.582688289166 
      7.582935781276 
      7.557969175508 
      7.538216803527 
      7.582939519945 
      7.557965907164 
      7.538217964673 
      7.582937711131 
      7.557966421546 
      7.538216950105 
      7.538350795798 
      7.526008790102 
      7.521526955010 
      7.538353551201 
      7.526009316404 
      7.521525830795 
      7.538353898976 
      7.526009596932 
      7.521525285330 
      7.521524403384 
      7.525995983894 
      7.538335942656 
      7.521523388934 
      7.525996301620 
      7.538335879263 
      7.521523028710 
      7.525996441936 
      7.538335789827 
      7.538208283404 
      7.557981544303 
      7.582978863501 
      7.538208020577 
      7.557981508383 
      7.582978994389 
      7.538207886634 
      7.557981508678 
      7.582979014867 
      7.582734473728 
      7.610950514635 
      7.639599296585 
      7.582734517726 
      7.610950460604 
      7.639599528221 
      7.582734513394 
      7.610950452371 
      7.639599614518 
      7.639302812174 
      7.665370878309 
      7.686481604403 
      7.639302983119 
      7.665370691395 
      7.686481754712 
      7.639303045906 
      7.665370612997 
      7.686481856433 
      7.686270485257 
      7.699701202448 
      7.704561779624 
      7.686270853968 
      7.699701324079 
      7.704560007538 
      7.686271077257 
      7.699701275593 
      7.704559191324 
      7.704559692520 
      7.699688234745 
      7.686257651220 
      7.704558336827 
      7.699689743273 
      7.686259080826 
      7.704557812254 
      7.699690656348 
      7.686257333151 
      7.686471487550 
      7.665384465448 
      7.639371239541 
      7.686470916009 
      7.665381023864 
      7.639379935464 
      7.686468144864 
      7.665382278058 
      7.639376966063 
      7.639665517431 
      7.611047985471 
      7.582822819534 
      7.639674259470 
      7.611047722623 
      7.582824571964 
      7.639666434762 
      7.611052286864 
      7.582825211735 
      7.583071543305 
      7.558108129885 
      7.538321504070 
      7.583079560800 
      7.558102566942 
      7.538303693303 
      7.583070645007 
      7.558110609628 
      7.538334890841 
      7.538513658774 
      7.526065841090 
      7.521682482532 
      7.538533736234 
      7.526039976155 
      7.521731163341 
      7.538528939513 
      7.526001788574 
      7.521831432686 
SCALARS  HU  double
LOOKUP_TABLE default
      0.001728842072 
     -0.105774595700 
     -0.198954334530 
      0.001019899393 
     -0.105615096078 
     -0.199093656794 
      0.001768324677 
     -0.105595612498 
     -0.198917148974 
     -0.198158848274 
     -0.277954045563 
     -0.329074745370 
     -0.197781182687 
     -0.278104068845 
     -0.329001090670 
     -0.197782072968 
     -0.278055767611 
     -0.329064759142 
     -0.328282523001 
     -0.351918734680 
     -0.336570877446 
     -0.328168149149 
     -0.351922317668 
     -0.336542255131 
     -0.328347434754 
     -0.351931675856 
     -0.336431847106 
     -0.337468087936 
     -0.290663073869 
     -0.210752379952 
     -0.337424729847 
     -0.290664302624 
     -0.210763185193 
     -0.337317267661 
     -0.290685068470 
     -0.210778846982 
     -0.212765971683 
     -0.112403316315 
      0.001211213115 
     -0.212776553824 
     -0.112398589536 
      0.001211615478 
     -0.212791763196 
     -0.112388202912 
      0.001214523394 
     -0.001253202432 
      0.112446448247 
      0.212958270026 
     -0.001256629172 
      0.112445171475 
      0.212960817013 
     -0.001263282141 
      0.112441062835 
      0.212967481038 
      0.210935494483 
      0.290609653220 
      0.336732381438 
      0.210937772179 
      0.290608826819 
      0.336732679580 
      0.210944135482 
      0.290606837449 
      0.336733400297 
      0.335906867043 
      0.351096567730 
      0.327160372240 
      0.335907626658 
      0.351096643341 
      0.327160126841 
      0.335909900191 
      0.351096680539 
      0.327159026442 
      0.327910907849 
      0.276967574330 
      0.196722155071 
      0.327910501099 
      0.276967792652 
      0.196722285020 
      0.327909947744 
      0.276968759585 
      0.196720162185 
      0.198776576052 
      0.103997520614 
     -0.001332151705 
      0.198775406520 
      0.103997875256 
     -0.001327571666 
      0.198771866833 
      0.103999695484 
     -0.001319926977 
      0.001260792536 
     -0.103889248651 
     -0.198675748958 
      0.001262079608 
     -0.103893916313 
     -0.198662418676 
      0.001262366830 
     -0.103903319765 
     -0.198635142690 
     -0.196655149307 
     -0.277109738905 
     -0.328373275978 
     -0.196639694655 
     -0.277118039756 
     -0.328383918385 
     -0.196615463357 
     -0.277130429455 
     -0.328389804471 
     -0.327668730056 
     -0.351862058554 
     -0.336657499458 
     -0.327644109691 
     -0.351867974829 
     -0.336848746814 
     -0.327620553553 
     -0.351891178061 
     -0.336980812316 
     -0.337628533524 
     -0.291914661205 
     -0.211628937837 
     -0.337700711722 
     -0.291751447279 
     -0.211917277142 
     -0.337739798274 
     -0.291603021315 
     -0.211855843301 
     -0.212978922524 
     -0.113953346314 
      0.000838851635 
     -0.213196535929 
     -0.113719607014 
      0.000963266431 
     -0.212952108409 
     -0.113893410872 
      0.001507216506 
      0.001250286497 
     -0.105645197696 
     -0.198859928283 
      0.001355566851 
     -0.105676132403 
     -0.198754521128 
      0.001340057906 
     -0.105776037965 
     -0.198851405995 
     -0.197871297482 
     -0.278045122689 
     -0.329055888562 
     -0.197993191921 
     -0.278048121449 
     -0.329039532336 
     -0.197938033069 
     -0.278128492222 
     -0.328914664797 
     -0.328353620123 
     -0.351932575198 
     -0.336434970090 
     -0.328391067293 
     -0.351956681604 
     -0.336347740007 
     -0.328238819178 
     -0.351985322952 
     -0.336304067397 
     -0.337325924352 
     -0.290682945236 
     -0.210776223753 
     -0.337207324557 
     -0.290698154718 
     -0.210805230267 
     -0.337106108115 
     -0.290716703129 
     -0.210830026440 
     -0.212790531709 
     -0.112389670575 
      0.001215335571 
     -0.212807965764 
     -0.112375801372 
      0.001211349255 
     -0.212803585575 
     -0.112361982712 
      0.001197600060 
     -0.001261778670 
      0.112441106850 
      0.212967174545 
     -0.001271007596 
      0.112438506852 
      0.212971508815 
     -0.001285218522 
      0.112440466181 
      0.212972076829 
      0.210944080019 
      0.290606944460 
      0.336733289440 
      0.210949131711 
      0.290605447675 
      0.336733225750 
      0.210948012590 
      0.290604815255 
      0.336733506534 
      0.335909746015 
      0.351096701125 
      0.327159039611 
      0.335911430027 
      0.351096958270 
      0.327156330255 
      0.335911881128 
      0.351097172631 
      0.327154465182 
      0.327910002819 
      0.276968691746 
      0.196719966092 
      0.327908910427 
      0.276970798079 
      0.196714249981 
      0.327907156404 
      0.276972684830 
      0.196713572582 
      0.198771998610 
      0.103999807486 
     -0.001321235382 
      0.198765950459 
      0.104002870066 
     -0.001310979737 
      0.198761240680 
      0.104002053530 
     -0.001289992833 
      0.001261786014 
     -0.103902158420 
     -0.198636622658 
      0.001263819009 
     -0.103915674490 
     -0.198627073415 
      0.001275760664 
     -0.103933327326 
     -0.198629941210 
     -0.196617851652 
     -0.277129487676 
     -0.328386530776 
     -0.196602764965 
     -0.277113134812 
     -0.328467287044 
     -0.196591061055 
     -0.277084969297 
     -0.328518183460 
     -0.327622736892 
     -0.351891384394 
     -0.336969705333 
     -0.327689573511 
     -0.351890640608 
     -0.336927183957 
     -0.327747469496 
     -0.351938536651 
     -0.336755584986 
     -0.337749855621 
     -0.291611592754 
     -0.211892621804 
     -0.337756173846 
     -0.291578357471 
     -0.211734143153 
     -0.337596089809 
     -0.291643572880 
     -0.212008159767 
     -0.213115728084 
     -0.113892507835 
      0.000945093679 
     -0.212739619144 
     -0.113949006561 
      0.001189162177 
     -0.213017202617 
     -0.113874445568 
      0.000694771584 
      0.001072559748 
     -0.105646508448 
     -0.198837505227 
      0.001273553076 
     -0.105598936766 
     -0.198918155758 
      0.001137739382 
     -0.105412566618 
     -0.199244115571 
     -0.197997233199 
     -0.278117750786 
     -0.328942410800 
     -0.198291042155 
     -0.278098277333 
     -0.328815901700 
     -0.198086135200 
     -0.278133237282 
     -0.328793838524 
     -0.328275609057 
     -0.351975434451 
     -0.336303525458 
     -0.328218163796 
     -0.351988736534 
     -0.336271918385 
     -0.328069725596 
     -0.351988067406 
     -0.336299597063 
     -0.337110040829 
     -0.290717610072 
     -0.210830379351 
     -0.337085333874 
     -0.290739227286 
     -0.210826867019 
     -0.337078339869 
     -0.290741013000 
     -0.210829997487 
     -0.212805100342 
     -0.112361394744 
      0.001197778359 
     -0.212785440476 
     -0.112356265126 
      0.001188156712 
     -0.212780148155 
     -0.112354380325 
      0.001183754110 
     -0.001286034096 
      0.112440413263 
      0.212972436966 
     -0.001294301568 
      0.112442825832 
      0.212972190459 
     -0.001297232769 
      0.112444030345 
      0.212971711796 
      0.210948099292 
      0.290604718748 
      0.336733600819 
      0.210946248263 
      0.290604230893 
      0.336734194672 
      0.210945383354 
      0.290604133421 
      0.336734319582 
      0.335911959806 
      0.351097151013 
      0.327154505330 
      0.335912720946 
      0.351097121320 
      0.327152787451 
      0.335912926131 
      0.351097106329 
      0.327152082941 
      0.327907179701 
      0.276972672162 
      0.196713482041 
      0.327906253225 
      0.276974243442 
      0.196712283290 
      0.327905858006 
      0.276974904283 
      0.196711493661 
      0.198761044828 
      0.104002262802 
     -0.001290541894 
      0.198758135359 
      0.104001181324 
     -0.001275054112 
      0.198756412563 
      0.104001223489 
     -0.001267798375 
      0.001274675195 
     -0.103933036860 
     -0.198629046881 
      0.001287091366 
     -0.103946514018 
     -0.198639788199 
      0.001290192366 
     -0.103952945238 
     -0.198630095242 
     -0.196592190839 
     -0.277085008585 
     -0.328515328488 
     -0.196582030690 
     -0.277059425548 
     -0.328578959222 
     -0.196571187679 
     -0.277061688267 
     -0.328579655190 
     -0.327750512234 
     -0.351939775545 
     -0.336720376442 
     -0.327801565877 
     -0.351946607122 
     -0.336700513850 
     -0.327781212789 
     -0.351967336835 
     -0.336729031972 
     -0.337582353493 
     -0.291644679778 
     -0.211899032091 
     -0.337628240709 
     -0.291693161585 
     -0.211816249678 
     -0.337526298259 
     -0.291697678883 
     -0.212102236652 
     -0.213029993727 
     -0.113747279845 
      0.000793575047 
     -0.212930929090 
     -0.113786362444 
      0.000972481392 
     -0.212854157545 
     -0.113621907197 
      0.000636475254 
SCALARS  HV  double
LOOKUP_TABLE default
      0.000194312156 
     -0.000102245609 
     -0.000086449874 
     -0.000090719366 
     -0.000141040262 
      0.000133242404 
     -0.000554531629 
      0.000257516889 
     -0.000587489056 
      0.000007124249 
      0.000038611777 
     -0.000060567393 
      0.000045174096 
      0.000027880335 
     -0.000019435293 
     -0.000082172143 
     -0.000001642814 
      0.000070396954 
     -0.000047825167 
      0.000007788664 
     -0.000006165324 
     -0.000008896538 
     -0.000039291785 
     -0.000009331706 
      0.000059255071 
     -0.000076209743 
     -0.000007085465 
     -0.000007335024 
     -0.000000989564 
      0.000001351613 
      0.000002091624 
      0.000014439267 
     -0.000003576205 
      0.000010048212 
      0.000022860130 
     -0.000005012188 
      0.000000939255 
     -0.000000342729 
      0.000000409023 
     -0.000006918917 
     -0.000002530299 
      0.000003743255 
     -0.000008597862 
     -0.000004294784 
      0.000005328378 
      0.000000213987 
      0.000000067284 
     -0.000000142997 
      0.000004260710 
     -0.000001042342 
     -0.000000168826 
      0.000007182517 
     -0.000001299144 
     -0.000001028278 
     -0.000000155031 
      0.000000048895 
      0.000000000524 
      0.000000899747 
      0.000000289462 
     -0.000000492110 
      0.000000726181 
      0.000000689247 
     -0.000001080220 
     -0.000000094082 
      0.000000008859 
      0.000000112652 
     -0.000000319757 
      0.000000144644 
     -0.000000082652 
     -0.000000889093 
      0.000000333121 
     -0.000000412972 
      0.000000027343 
     -0.000000112341 
      0.000000364970 
     -0.000000172549 
      0.000000042465 
      0.000000394917 
     -0.000000723972 
      0.000000286037 
      0.000000945407 
      0.000000442341 
     -0.000000064289 
      0.000000365509 
      0.000000092049 
     -0.000000535109 
      0.000002490783 
     -0.000000232923 
     -0.000001207398 
      0.000005527432 
      0.000000439358 
      0.000000016672 