# vtk DataFile Version 2.0
NDG-FEM NonhydrostaticStandingWave2d Simulation
ASCII
DATASET UNSTRUCTURED_GRID

POINTS 1800 double
0.00000000000000000000  0.00000000000000000000  0.00000000000000000000
1.00000000000000000000  0.00000000000000000000  0.00000000000000000000
2.00000000000000000000  0.00000000000000000000  0.00000000000000000000
0.00000000000000000000  1.00000000000000000000  0.00000000000000000000
1.00000000000000000000  1.00000000000000000000  0.00000000000000000000
0.00000000000000000000  2.00000000000000000000  0.00000000000000000000
2.00000000000000000000  0.00000000000000000000  0.00000000000000000000
3.00000000000000000000  0.00000000000000000000  0.00000000000000000000
4.00000000000000000000  0.00000000000000000000  0.00000000000000000000
2.00000000000000000000  1.00000000000000000000  0.00000000000000000000
3.00000000000000000000  1.00000000000000000000  0.00000000000000000000
2.00000000000000000000  2.00000000000000000000  0.00000000000000000000
4.00000000000000000000  0.00000000000000000000  0.00000000000000000000
5.00000000000000000000  0.00000000000000000000  0.00000000000000000000
6.00000000000000000000  0.00000000000000000000  0.00000000000000000000
4.00000000000000000000  1.00000000000000000000  0.00000000000000000000
5.00000000000000000000  1.00000000000000000000  0.00000000000000000000
4.00000000000000000000  2.00000000000000000000  0.00000000000000000000
6.00000000000000000000  0.00000000000000000000  0.00000000000000000000
7.00000000000000000000  0.00000000000000000000  0.00000000000000000000
8.00000000000000000000  0.00000000000000000000  0.00000000000000000000
6.00000000000000000000  1.00000000000000000000  0.00000000000000000000
7.00000000000000000000  1.00000000000000000000  0.00000000000000000000
6.00000000000000000000  2.00000000000000000000  0.00000000000000000000
8.00000000000000000000  0.00000000000000000000  0.00000000000000000000
9.00000000000000000000  0.00000000000000000000  0.00000000000000000000
10.00000000000000000000  0.00000000000000000000  0.00000000000000000000
8.00000000000000000000  1.00000000000000000000  0.00000000000000000000
9.00000000000000000000  1.00000000000000000000  0.00000000000000000000
8.00000000000000000000  2.00000000000000000000  0.00000000000000000000
10.00000000000000000000  0.00000000000000000000  0.00000000000000000000
11.00000000000000000000  0.00000000000000000000  0.00000000000000000000
12.00000000000000000000  0.00000000000000000000  0.00000000000000000000
10.00000000000000000000  1.00000000000000000000  0.00000000000000000000
11.00000000000000000000  1.00000000000000000000  0.00000000000000000000
10.00000000000000000000  2.00000000000000000000  0.00000000000000000000
12.00000000000000000000  0.00000000000000000000  0.00000000000000000000
13.00000000000000000000  0.00000000000000000000  0.00000000000000000000
14.00000000000000000000  0.00000000000000000000  0.00000000000000000000
12.00000000000000000000  1.00000000000000000000  0.00000000000000000000
13.00000000000000000000  1.00000000000000000000  0.00000000000000000000
12.00000000000000000000  2.00000000000000000000  0.00000000000000000000
14.00000000000000000000  0.00000000000000000000  0.00000000000000000000
15.00000000000000000000  0.00000000000000000000  0.00000000000000000000
16.00000000000000000000  0.00000000000000000000  0.00000000000000000000
14.00000000000000000000  1.00000000000000000000  0.00000000000000000000
15.00000000000000000000  1.00000000000000000000  0.00000000000000000000
14.00000000000000000000  2.00000000000000000000  0.00000000000000000000
16.00000000000000000000  0.00000000000000000000  0.00000000000000000000
17.00000000000000000000  0.00000000000000000000  0.00000000000000000000
18.00000000000000000000  0.00000000000000000000  0.00000000000000000000
16.00000000000000000000  1.00000000000000000000  0.00000000000000000000
17.00000000000000000000  1.00000000000000000000  0.00000000000000000000
16.00000000000000000000  2.00000000000000000000  0.00000000000000000000
18.00000000000000000000  0.00000000000000000000  0.00000000000000000000
19.00000000000000000000  0.00000000000000000000  0.00000000000000000000
20.00000000000000000000  0.00000000000000000000  0.00000000000000000000
18.00000000000000000000  1.00000000000000000000  0.00000000000000000000
19.00000000000000000000  1.00000000000000000000  0.00000000000000000000
18.00000000000000000000  2.00000000000000000000  0.00000000000000000000
20.00000000000000000000  0.00000000000000000000  0.00000000000000000000
21.00000000000000000000  0.00000000000000000000  0.00000000000000000000
22.00000000000000000000  0.00000000000000000000  0.00000000000000000000
20.00000000000000000000  1.00000000000000000000  0.00000000000000000000
21.00000000000000000000  1.00000000000000000000  0.00000000000000000000
20.00000000000000000000  2.00000000000000000000  0.00000000000000000000
22.00000000000000000000  0.00000000000000000000  0.00000000000000000000
23.00000000000000000000  0.00000000000000000000  0.00000000000000000000
24.00000000000000000000  0.00000000000000000000  0.00000000000000000000
22.00000000000000000000  1.00000000000000000000  0.00000000000000000000
23.00000000000000000000  1.00000000000000000000  0.00000000000000000000
22.00000000000000000000  2.00000000000000000000  0.00000000000000000000
24.00000000000000000000  0.00000000000000000000  0.00000000000000000000
25.00000000000000000000  0.00000000000000000000  0.00000000000000000000
26.00000000000000000000  0.00000000000000000000  0.00000000000000000000
24.00000000000000000000  1.00000000000000000000  0.00000000000000000000
25.00000000000000000000  1.00000000000000000000  0.00000000000000000000
24.00000000000000000000  2.00000000000000000000  0.00000000000000000000
26.00000000000000000000  0.00000000000000000000  0.00000000000000000000
27.00000000000000000000  0.00000000000000000000  0.00000000000000000000
28.00000000000000000000  0.00000000000000000000  0.00000000000000000000
26.00000000000000000000  1.00000000000000000000  0.00000000000000000000
27.00000000000000000000  1.00000000000000000000  0.00000000000000000000
26.00000000000000000000  2.00000000000000000000  0.00000000000000000000
28.00000000000000000000  0.00000000000000000000  0.00000000000000000000
29.00000000000000000000  0.00000000000000000000  0.00000000000000000000
30.00000000000000000000  0.00000000000000000000  0.00000000000000000000
28.00000000000000000000  1.00000000000000000000  0.00000000000000000000
29.00000000000000000000  1.00000000000000000000  0.00000000000000000000
28.00000000000000000000  2.00000000000000000000  0.00000000000000000000
30.00000000000000000000  0.00000000000000000000  0.00000000000000000000
31.00000000000000000000  0.00000000000000000000  0.00000000000000000000
32.00000000000000000000  0.00000000000000000000  0.00000000000000000000
30.00000000000000000000  1.00000000000000000000  0.00000000000000000000
31.00000000000000000000  1.00000000000000000000  0.00000000000000000000
30.00000000000000000000  2.00000000000000000000  0.00000000000000000000
32.00000000000000000000  0.00000000000000000000  0.00000000000000000000
33.00000000000000000000  0.00000000000000000000  0.00000000000000000000
34.00000000000000000000  0.00000000000000000000  0.00000000000000000000
32.00000000000000000000  1.00000000000000000000  0.00000000000000000000
33.00000000000000000000  1.00000000000000000000  0.00000000000000000000
32.00000000000000000000  2.00000000000000000000  0.00000000000000000000
34.00000000000000000000  0.00000000000000000000  0.00000000000000000000
35.00000000000000000000  0.00000000000000000000  0.00000000000000000000
36.00000000000000000000  0.00000000000000000000  0.00000000000000000000
34.00000000000000000000  1.00000000000000000000  0.00000000000000000000
35.00000000000000000000  1.00000000000000000000  0.00000000000000000000
34.00000000000000000000  2.00000000000000000000  0.00000000000000000000
36.00000000000000000000  0.00000000000000000000  0.00000000000000000000
37.00000000000000000000  0.00000000000000000000  0.00000000000000000000
38.00000000000000000000  0.00000000000000000000  0.00000000000000000000
36.00000000000000000000  1.00000000000000000000  0.00000000000000000000
37.00000000000000000000  1.00000000000000000000  0.00000000000000000000
36.00000000000000000000  2.00000000000000000000  0.00000000000000000000
38.00000000000000000000  0.00000000000000000000  0.00000000000000000000
39.00000000000000000000  0.00000000000000000000  0.00000000000000000000
40.00000000000000000000  0.00000000000000000000  0.00000000000000000000
38.00000000000000000000  1.00000000000000000000  0.00000000000000000000
39.00000000000000000000  1.00000000000000000000  0.00000000000000000000
38.00000000000000000000  2.00000000000000000000  0.00000000000000000000
40.00000000000000000000  0.00000000000000000000  0.00000000000000000000
41.00000000000000000000  0.00000000000000000000  0.00000000000000000000
42.00000000000000000000  0.00000000000000000000  0.00000000000000000000
40.00000000000000000000  1.00000000000000000000  0.00000000000000000000
41.00000000000000000000  1.00000000000000000000  0.00000000000000000000
40.00000000000000000000  2.00000000000000000000  0.00000000000000000000
42.00000000000000000000  0.00000000000000000000  0.00000000000000000000
43.00000000000000000000  0.00000000000000000000  0.00000000000000000000
44.00000000000000000000  0.00000000000000000000  0.00000000000000000000
42.00000000000000000000  1.00000000000000000000  0.00000000000000000000
43.00000000000000000000  1.00000000000000000000  0.00000000000000000000
42.00000000000000000000  2.00000000000000000000  0.00000000000000000000
44.00000000000000000000  0.00000000000000000000  0.00000000000000000000
45.00000000000000000000  0.00000000000000000000  0.00000000000000000000
46.00000000000000000000  0.00000000000000000000  0.00000000000000000000
44.00000000000000000000  1.00000000000000000000  0.00000000000000000000
45.00000000000000000000  1.00000000000000000000  0.00000000000000000000
[...]
POINT_DATA 1800
SCALARS  H  double
LOOKUP_TABLE default
      7.695315541061 
      7.690965400006 
      7.678705035242 
      7.695331716796 
      7.690971242445 
      7.695330265701 
      7.678809842149 
      7.659795806522 
      7.636066181867 
      7.678842603955 
      7.659791959913 
      7.678846648215 
      7.636404655118 
      7.610765696365 
      7.585314916944 
      7.636403576233 
      7.610752149664 
      7.636425954456 
      7.585709950565 
      7.563486302286 
      7.545776982602 
      7.585674496603 
      7.563466261362 
      7.585702460899 
      7.546098861231 
      7.535130693310 
      7.531100562034 
      7.546041902538 
      7.535111179025 
      7.546067399898 
      7.531275097162 
      7.535109236076 
      7.546036655799 
      7.531214772234 
      7.535097563324 
      7.531230510237 
      7.546013627867 
      7.563425124695 
      7.585796023604 
      7.545970328145 
      7.563426588636 
      7.545968274685 
      7.585546366349 
      7.610679954084 
      7.636634009566 
      7.585539723236 
      7.610695558525 
      7.585518669779 
      7.636206786909 
      7.659715209305 
      7.679092737304 
      7.636243500830 
      7.659738232038 
      7.636210310492 
      7.678664315219 
      7.690925539727 
      7.695485431887 
      7.678729912031 
      7.690945080877 
      7.678699306933 
      7.695279320479 
      7.690960431953 
      7.678695424658 
      7.695343940498 
      7.690969153244 
      7.695330283061 
      7.678807416637 
      7.659798903534 
      7.636066705555 
      7.678844616003 
      7.659795401607 
      7.678852427962 
      7.636404598259 
      7.610768595261 
      7.585313468880 
      7.636403640694 
      7.610755053907 
      7.636426855770 
      7.585707675732 
      7.563485660841 
      7.545776557621 
      7.585672209053 
      7.563466345838 
      7.585701032076 
      7.546097528501 
      7.535129763197 
      7.531101737472 
      7.546040218575 
      7.535110723900 
      7.546065911103 
      7.531276156602 
      7.535109123287 
      7.546036566665 
      7.531215278881 
      7.535097366518 
      7.531230255349 
      7.546013586744 
      7.563425156649 
      7.585796068664 
      7.545970339408 
      7.563426572976 
      7.545968257524 
      7.585546376617 
      7.610679937213 
      7.636634036458 
      7.585539740069 
      7.610695544404 
      7.585518708602 
      7.636206806132 
      7.659715206701 
      7.679092737666 
      7.636243512754 
      7.659738228571 
      7.636210317952 
      7.678664318059 
      7.690925540035 
      7.695485431094 
      7.678729914188 
      7.690945080499 
      7.678699307712 
      7.695279320527 
      7.690960432053 
      7.678695424523 
      7.695343940712 
      7.690969153220 
      7.695330283200 
      7.678807416614 
      7.659798903544 
      7.636066705543 
      7.678844616023 
      7.659795401605 
      7.678852427990 
      7.636404598257 
      7.610768595261 
      7.585313468880 
      7.636403640696 
      7.610755053906 
      7.636426855774 
      7.585707675732 
      7.563485660841 
      7.545776557621 
      7.585672209054 
      7.563466345838 
      7.585701032077 
      7.546097528501 
      7.535129763197 
      7.531101737472 
      7.546040218575 
      7.535110723900 
      7.546065911103 
      7.531276156602 
      7.535109123287 
      7.546036566665 
      7.531215278881 
      7.535097366518 
      7.531230255349 
      7.546013586744 
      7.563425156649 
      7.585796068664 
      7.545970339408 
      7.563426572976 
      7.545968257524 
      7.585546376617 
      7.610679937213 
      7.636634036458 
      7.585539740069 
      7.610695544404 
      7.585518708602 
      7.636206806132 
      7.659715206701 
      7.679092737666 
      7.636243512754 
      7.659738228571 
      7.636210317952 
      7.678664318059 
      7.690925540035 
      7.695485431094 
      7.678729914188 
      7.690945080499 
      7.678699307712 
      7.695279320527 
      7.690960432053 
      7.678695424523 
      7.695343940712 
      7.690969153220 
      7.695330283200 
      7.678807416614 
      7.659798903544 
      7.636066705543 
      7.678844616023 
      7.659795401605 
      7.678852427990 
      7.636404598257 
      7.610768595261 
      7.585313468880 
      7.636403640696 
      7.610755053906 
      7.636426855774 
      7.585707675732 
      7.563485660841 
      7.545776557621 
      7.585672209054 
      7.563466345838 
      7.585701032077 
      7.546097528501 
      7.535129763197 
      7.531101737472 
      7.546040218575 
      7.535110723900 
      7.546065911103 
      7.531276156602 
      7.535109123287 
      7.546036566665 
      7.531215278881 
      7.535097366518 
      7.531230255349 
      7.546013586744 
      7.563425156649 
      7.585796068664 
      7.545970339408 
      7.563426572976 
      7.545968257524 
      7.585546376617 
      7.610679937213 
      7.636634036458 
      7.585539740069 
      7.610695544404 
      7.585518708602 
      7.636206806133 
      7.659715206700 
      7.679092737673 
      7.636243512753 
      7.659738228571 
      7.636210317949 
      7.678664318066 
      7.690925540029 
      7.695485431135 
      7.678729914180 
      7.690945080509 
      7.678699307685 
      7.695279320536 
      7.690960432036 
      7.678695424840 
      7.695343940633 
      7.690969153308 
      7.695330282966 
      7.678807416414 
      7.659798903559 
      7.636066708856 
      7.678844615441 
      7.659795402228 
      7.678852426363 
      7.636404596905 
      7.610768594059 
      7.585313499750 
      7.636403637750 
      7.610755056612 
      7.636426847043 
      7.585707682233 
      7.563485636149 
      7.545776733625 
      7.585672205422 
      7.563466333624 
      7.585701005655 
      7.546097654952 
      7.535129607651 
      7.531101977983 
      7.546040316167 
      7.535110495926 
      7.546066013792 
      7.531276663728 
      7.535109089663 
      7.546034388094 
      7.531215819116 
      7.535097190912 
      7.531231158081 
      7.546012876134 
      7.563424176228 
      7.585793262914 
      7.545969100463 
      7.563426276565 
      7.545967368081 
      7.585545144434 
      7.610682805847 
      7.636636280992 
      7.585539156455 
      7.610696411175 
      7.585516439650 
      7.636208089785 
      7.659717562365 
      7.679095222132 
      7.636245673992 
      7.659740793196 
      7.636209907570 
      7.678655148393 
      7.690924842465 
      7.695457724826 
      7.678726300219 
      7.690950736771 
      7.678688996085 
      7.678705654111 
      7.678721812356 
      7.678708962864 
      7.690948911612 
      7.690937654945 
      7.695450638722 
      7.636212313422 
      7.636237588607 
      7.636231365640 
      7.659740205021 
      7.659733436562 
      7.679060909498 
      7.585516095289 
      7.585534164286 
      7.585540733431 
      7.610695190152 
      7.610698191009 
      7.636624331145 
      7.545960113446 
      7.545964759818 
      7.545981155673 
      7.563426082624 
      7.563437078548 
      7.585811326209 
      7.531218530537 
      7.531210396251 
      7.531228806999 
      7.535096688742 
      7.535112556075 
      7.546068299017 
      7.546056841194 
      7.546040280611 
      7.546051851898 
      7.535110274622 
      7.535125005123 
      7.531135992076 
      7.585696591651 
      7.585677613500 
      7.585680455311 
      7.563464836392 
      7.563472701443 
      7.545801583805 
      7.636428728240 
      7.636412446064 
      7.636407784788 
      7.610751284382 
      7.610749287371 
      7.585320488471 
      7.678860422762 
      7.678852483698 
      7.678841780085 
      7.659791051122 
      7.659780470792 
      7.636053436781 
      7.695341795632 
      7.695347188298 
      7.695331722085 
      7.690968270460 
      7.690952999138 
      7.678666892445 
      7.678709126592 
      7.678727941201 
      7.678712858049 
      7.690948903694 
      7.690933668328 
      7.695452328298 
      7.636213821126 
      7.636237974353 
      7.636231511259 
      7.659743364513 
      7.659733655487 
      7.679067776025 
      7.585515103272 
      7.585532678865 
      7.585539144384 
      7.610698191569 
      7.610698776711 
      7.636627320601 
      7.545959581141 
      7.545963640591 
      7.545979672452 
      7.563426380547 
      7.563437440410 
      7.585810515102 
      7.531219509591 
      7.531210931746 
      7.531228447415 
      7.535096375619 
      7.535112869153 
      7.546066489685 
      7.546056720739 
      7.546040308361 
      7.546051938619 
      7.535110058870 
      7.535125068983 
      7.531135502680 
      7.585696611619 
      7.585677638193 
      7.585680512983 
      7.563464833070 
      7.563472663874 
      7.545801479601 
      7.636428746927 
      7.636412456402 
      7.636407790620 
      7.610751276500 
      7.610749280626 
      7.585320508763 
      7.678860423607 
      7.678852485141 
      7.678841780324 
      7.659791047879 
      7.659780470543 
      7.636053442841 
      7.695341795202 
      7.695347188405 
      7.695331722186 
      7.690968269935 
      7.690952999058 
      7.678666893121 
      7.678709126508 
      7.678727941208 
      7.678712858077 
      7.690948903642 
      7.690933668301 
      7.695452328400 
      7.636213821118 
      7.636237974354 
      7.636231511264 
      7.659743364509 
      7.659733655483 
      7.679067776045 
      7.585515103271 
      7.585532678865 
      7.585539144385 
      7.610698191569 
      7.610698776711 
      7.636627320604 
      7.545959581141 
      7.545963640592 
      7.545979672452 
      7.563426380547 
      7.563437440410 
      7.585810515103 
      7.531219509591 
      7.531210931746 
      7.531228447415 
      7.535096375619 
      7.535112869153 
      7.546066489685 
      7.546056720739 
      7.546040308361 
      7.546051938619 
      7.535110058870 
      7.535125068983 
      7.531135502680 
      7.585696611619 
      7.585677638193 
      7.585680512983 
      7.563464833070 
      7.563472663874 
      7.545801479601 
      7.636428746927 
      7.636412456402 
      7.636407790620 
      7.610751276500 
      7.610749280626 
      7.585320508763 
      7.678860423607 
      7.678852485141 
      7.678841780324 
      7.659791047879 
      7.659780470543 
      7.636053442841 
      7.695341795202 
      7.695347188405 
      7.695331722186 
      7.690968269935 
      7.690952999058 
      7.678666893121 
      7.678709126508 
      7.678727941208 
      7.678712858077 
      7.690948903642 
      7.690933668301 
      7.695452328400 
      7.636213821118 
      7.636237974354 
      7.636231511264 
      7.659743364509 
      7.659733655483 
      7.679067776045 
      7.585515103271 
      7.585532678865 
      7.585539144385 
      7.610698191569 
      7.610698776711 
      7.636627320604 
      7.545959581141 
      7.545963640592 
      7.545979672452 
      7.563426380547 
      7.563437440410 
      7.585810515103 
      7.531219509591 
      7.531210931746 
      7.531228447415 
      7.535096375619 
      7.535112869153 
      7.546066489685 
      7.546056720739 
      7.546040308361 
      7.546051938619 
      7.535110058870 
      7.535125068983 
      7.531135502680 
      7.585696611619 
      7.585677638193 
      7.585680512982 
      7.563464833070 
      7.563472663874 
      7.545801479601 
      7.636428746928 
      7.636412456402 
      7.636407790619 
      7.610751276500 
      7.610749280626 
      7.585320508763 
      7.678860423612 
      7.678852485136 
      7.678841780302 
      7.659791047881 
      7.659780470546 
      7.636053442837 
      7.695341795211 
      7.695347188352 
      7.695331722010 
      7.690968269958 
      7.690952999091 
      7.678666893080 
      7.678709126484 
      7.678727940825 
      7.678712857011 
      7.690948903835 
      7.690933668585 
      7.695452328015 
      7.636213821832 
      7.636237972977 
      7.636231507027 
      7.659743365827 
      7.659733657405 
      7.679067773145 
      7.585515121323 
      7.585532686958 
      7.585539146219 
      7.610698197915 
      7.610698786546 
      7.636627303842 
      7.545959740419 
      7.545963801262 
      7.545979868562 
      7.563426380456 
      7.563437455883 
      7.585810462338 
      7.531219994503 
      7.531211519285 
      7.531229204232 
      7.535096126857 
      7.535112610427 
      7.546066665464 
      7.546055309851 
      7.546038606535 
      7.546049892597 
      7.535109687953 
      7.535124532025 
      7.531136820477 
      7.585694317982 
      7.585676549430 
      7.585678057639 
      7.563464560383 
      7.563473502379 
      7.545800999044 
      7.636430560613 
      7.636413795667 
      7.636409115117 
      7.610752476907 
      7.610750334008 
      7.585318257394 
      7.678861245852 
      7.678854868794 
      7.678840165078 
      7.659794304837 
      7.659780377902 
      7.636051711004 
      7.695322862081 
      7.695358101205 
      7.695345068396 
      7.690967516907 
      7.690949312508 
      7.678659462832 
      7.695325966602 
      7.690954401408 
      7.678664216187 
      7.695346802423 
      7.690967298644 
      7.695332209340 
      7.678849154308 
      7.659786914927 
      7.636058722195 
      7.678851533760 
      7.659792422851 
      7.678856396438 
      7.636418360938 
      7.610755323317 
      7.585330340901 
      7.636407762124 
      7.610753446218 
      7.636428128654 
      7.585692777593 
      7.563475810686 
      7.545811146832 
      7.585674006278 
      7.563464543093 
      7.585702398961 
      7.546058770975 
      7.535125106220 
      7.531140394115 
      7.546040590292 
      7.535109416783 
      7.546070004307 
      7.531226038668 
      7.535111082052 
      7.546066410425 
      7.531213713719 
      7.535097354009 
      7.531237311003 
      7.545969138971 
      7.563433772593 
      7.585806609879 
      7.545966045112 
      7.563428002119 
      7.545972741954 
      7.585524663789 
      7.610692900357 
      7.636620473280 
      7.585534348055 
      7.610698310717 
      7.585518149219 
      7.636218871957 
      7.659727340689 
      7.679059374554 
      7.636239231139 
      7.659741530298 
      7.636204575276 
      7.678707505807 
      7.690930718589 
      7.695445555725 
      7.678728924282 
      7.690946775109 
      7.678691635503 
      7.695336247197 
      7.690955943813 
      7.678665166326 
      7.695347414920 
      7.690967421745 
      7.695324536413 
      7.678853909455 
      7.659787521700 
      7.636057954017 
      7.678851195349 
      7.659791226457 
      7.678850421472 
      7.636422019145 
      7.610755998143 
      7.585329071698 
      7.636409911188 
      7.610751348764 
      7.636428383797 
      7.585691807104 
      7.563476194716 
      7.545809698076 
      7.585675657273 
      7.563464532087 
      7.585705075962 
      7.546056981633 
      7.535125495471 
      7.531139900982 
      7.546040497297 
      7.535110223601 
      7.546071584823 
      7.531225381362 
      7.535111174187 
      7.546066392341 
      7.531212907383 
      7.535097660455 
      7.531236467040 
      7.545969075305 
      7.563433712700 
      7.585806714437 
      7.545965887928 
      7.563427959453 
      7.545972561227 
      7.585524710080 
      7.610692885579 
      7.636620494498 
      7.585534372798 
      7.610698291294 
      7.585518153833 
      7.636218881930 
      7.659727339663 
      7.679059376328 
      7.636239239923 
      7.659741527894 
      7.636204580284 
      7.678707506720 
      7.690930718525 
      7.695445555872 
      7.678728925503 
      7.690946774930 
      7.678691636613 
      7.695336247296 
      7.690955943796 
      7.678665166349 
      7.695347415063 
      7.690967421730 
      7.695324536585 
      7.678853909475 
      7.659787521697 
      7.636057954020 
      7.678851195367 
      7.659791226455 
      7.678850421492 
      7.636422019148 
      7.610755998142 
      7.585329071698 
      7.636409911191 
      7.610751348764 
      7.636428383799 
      7.585691807104 
      7.563476194716 
      7.545809698076 
      7.585675657274 
      7.563464532087 
      7.585705075962 
      7.546056981633 
      7.535125495471 
      7.531139900982 
      7.546040497297 
      7.535110223601 
      7.546071584823 
      7.531225381362 
      7.535111174187 
      7.546066392341 
      7.531212907383 
      7.535097660455 
      7.531236467040 
      7.545969075305 
      7.563433712700 
      7.585806714437 
      7.545965887928 
      7.563427959453 
      7.545972561227 
      7.585524710080 
      7.610692885579 
      7.636620494498 
      7.585534372798 
      7.610698291294 
      7.585518153833 
      7.636218881930 
      7.659727339663 
      7.679059376328 
      7.636239239923 
      7.659741527894 
      7.636204580284 
      7.678707506720 
      7.690930718525 
      7.695445555872 
      7.678728925503 
      7.690946774930 
      7.678691636613 
      7.695336247296 
      7.690955943796 
      7.678665166349 
      7.695347415063 
      7.690967421730 
      7.695324536585 
      7.678853909475 
      7.659787521697 
      7.636057954020 
      7.678851195367 
      7.659791226455 
      7.678850421492 
      7.636422019148 
      7.610755998142 
      7.585329071698 
      7.636409911191 
      7.610751348764 
      7.636428383799 
      7.585691807104 
      7.563476194716 
      7.545809698076 
      7.585675657274 
      7.563464532087 
      7.585705075962 
      7.546056981633 
      7.535125495471 
      7.531139900982 
      7.546040497297 
      7.535110223601 
      7.546071584823 
      7.531225381362 
      7.535111174187 
      7.546066392341 
      7.531212907383 
      7.535097660455 
      7.531236467040 
      7.545969075305 
      7.563433712700 
      7.585806714437 
      7.545965887928 
      7.563427959453 
      7.545972561227 
      7.585524710080 
      7.610692885579 
      7.636620494497 
      7.585534372798 
      7.610698291295 
      7.585518153832 
      7.636218881928 
      7.659727339664 
      7.679059376315 
      7.636239239922 
      7.659741527896 
      7.636204580281 
      7.678707506697 
      7.690930718544 
      7.695445555755 
      7.678728925490 
      7.690946774943 
      7.678691636595 
      7.695336247073 
      7.690955943976 
      7.678665165710 
      7.695347414960 
      7.690967421912 
      7.695324536502 
      7.678853907916 
      7.659787522814 
      7.636057952649 
      7.678851194343 
      7.659791228695 
      7.678850420696 
      7.636422011798 
      7.610756002217 
      7.585329089610 
      7.636409901933 
      7.610751363963 
      7.636428373109 
      7.585691790880 
      7.563476187659 
      7.545809937351 
      7.585675614821 
      7.563464548282 
      7.585705011841 
      7.546057099995 
      7.535125256154 
      7.531140506628 
      7.546040561140 
      7.535109910503 
      7.546071548070 
      7.531226273267 
      7.535110847275 
      7.546063815138 
      7.531213695369 
      7.535096957622 
      7.531236738465 
      7.545968022039 
      7.563434823624 
      7.585803788022 
      7.545966363481 
      7.563428236410 
      7.545973848307 
      7.585522113822 
      7.610694043044 
      7.636621718921 
      7.585533518313 
      7.610700774479 
      7.585519884412 
      7.636217949582 
      7.659726792954 
      7.679065718950 
      7.636237514927 
      7.659742899297 
      7.636205025558 
      7.678718998902 
      7.690928300600 
      7.695452178907 
      7.678733675152 
      7.690945967666 
      7.678691278562 
      7.678691278562 
      7.678733675152 
      7.678718998902 
      7.690945967666 
      7.690928300600 
      7.695452178907 