# vtk DataFile Version 2.0
NDG-FEM NonhydrostaticStandingWave2d Simulation
ASCII
DATASET UNSTRUCTURED_GRID

POINTS 1800 double
0.00000000000000000000  0.00000000000000000000  0.00000000000000000000
1.00000000000000000000  0.00000000000000000000  0.00000000000000000000
2.00000000000000000000  0.00000000000000000000  0.00000000000000000000
0.00000000000000000000  1.00000000000000000000  0.00000000000000000000
1.00000000000000000000  1.00000000000000000000  0.00000000000000000000
0.00000000000000000000  2.00000000000000000000  0.00000000000000000000
2.00000000000000000000  0.00000000000000000000  0.00000000000000000000
3.00000000000000000000  0.00000000000000000000  0.00000000000000000000
4.00000000000000000000  0.00000000000000000000  0.00000000000000000000
2.00000000000000000000  1.00000000000000000000  0.00000000000000000000
3.00000000000000000000  1.00000000000000000000  0.00000000000000000000
2.00000000000000000000  2.00000000000000000000  0.00000000000000000000
4.00000000000000000000  0.00000000000000000000  0.00000000000000000000
5.00000000000000000000  0.00000000000000000000  0.00000000000000000000
6.00000000000000000000  0.00000000000000000000  0.00000000000000000000
4.00000000000000000000  1.00000000000000000000  0.00000000000000000000
5.00000000000000000000  1.00000000000000000000  0.00000000000000000000
4.00000000000000000000  2.00000000000000000000  0.00000000000000000000
6.00000000000000000000  0.00000000000000000000  0.00000000000000000000
7.00000000000000000000  0.00000000000000000000  0.00000000000000000000
8.00000000000000000000  0.00000000000000000000  0.00000000000000000000
6.00000000000000000000  1.00000000000000000000  0.00000000000000000000
7.00000000000000000000  1.00000000000000000000  0.00000000000000000000
6.00000000000000000000  2.00000000000000000000  0.00000000000000000000
8.00000000000000000000  0.00000000000000000000  0.00000000000000000000
9.00000000000000000000  0.00000000000000000000  0.00000000000000000000
10.00000000000000000000  0.00000000000000000000  0.00000000000000000000
8.00000000000000000000  1.00000000000000000000  0.00000000000000000000
9.00000000000000000000  1.00000000000000000000  0.00000000000000000000
8.00000000000000000000  2.00000000000000000000  0.00000000000000000000
10.00000000000000000000  0.00000000000000000000  0.00000000000000000000
11.00000000000000000000  0.00000000000000000000  0.00000000000000000000
12.00000000000000000000  0.00000000000000000000  0.00000000000000000000
10.00000000000000000000  1.00000000000000000000  0.00000000000000000000
11.00000000000000000000  1.00000000000000000000  0.00000000000000000000
10.00000000000000000000  2.00000000000000000000  0.00000000000000000000
12.00000000000000000000  0.00000000000000000000  0.00000000000000000000
13.00000000000000000000  0.00000000000000000000  0.00000000000000000000
14.00000000000000000000  0.00000000000000000000  0.00000000000000000000
12.00000000000000000000  1.00000000000000000000  0.00000000000000000000
13.00000000000000000000  1.00000000000000000000  0.00000000000000000000
12.00000000000000000000  2.00000000000000000000  0.00000000000000000000
14.00000000000000000000  0.00000000000000000000  0.00000000000000000000
15.00000000000000000000  0.00000000000000000000  0.00000000000000000000
16.00000000000000000000  0.00000000000000000000  0.00000000000000000000
14.00000000000000000000  1.00000000000000000000  0.00000000000000000000
15.00000000000000000000  1.00000000000000000000  0.00000000000000000000
14.00000000000000000000  2.00000000000000000000  0.00000000000000000000
16.00000000000000000000  0.00000000000000000000  0.00000000000000000000
17.00000000000000000000  0.00000000000000000000  0.00000000000000000000
18.00000000000000000000  0.00000000000000000000  0.00000000000000000000
16.00000000000000000000  1.00000000000000000000  0.00000000000000000000
17.00000000000000000000  1.00000000000000000000  0.00000000000000000000
16.00000000000000000000  2.00000000000000000000  0.00000000000000000000
18.00000000000000000000  0.00000000000000000000  0.00000000000000000000
19.00000000000000000000  0.00000000000000000000  0.00000000000000000000
20.00000000000000000000  0.00000000000000000000  0.00000000000000000000
18.00000000000000000000  1.00000000000000000000  0.00000000000000000000
19.00000000000000000000  1.00000000000000000000  0.00000000000000000000
18.00000000000000000000  2.00000000000000000000  0.00000000000000000000
20.00000000000000000000  0.00000000000000000000  0.00000000000000000000
21.00000000000000000000  0.00000000000000000000  0.00000000000000000000
22.00000000000000000000  0.00000000000000000000  0.00000000000000000000
20.00000000000000000000  1.00000000000000000000  0.00000000000000000000
21.00000000000000000000  1.00000000000000000000  0.00000000000000000000
20.00000000000000000000  2.00000000000000000000  0.00000000000000000000
22.00000000000000000000  0.00000000000000000000  0.00000000000000000000
23.00000000000000000000  0.00000000000000000000  0.00000000000000000000
24.00000000000000000000  0.00000000000000000000  0.00000000000000000000
22.00000000000000000000  1.00000000000000000000  0.00000000000000000000
23.00000000000000000000  1.00000000000000000000  0.00000000000000000000
22.00000000000000000000  2.00000000000000000000  0.00000000000000000000
24.00000000000000000000  0.00000000000000000000  0.00000000000000000000
25.00000000000000000000  0.00000000000000000000  0.00000000000000000000
26.00000000000000000000  0.00000000000000000000  0.00000000000000000000
24.00000000000000000000  1.00000000000000000000  0.00000000000000000000
25.00000000000000000000  1.00000000000000000000  0.00000000000000000000
24.00000000000000000000  2.00000000000000000000  0.00000000000000000000
26.00000000000000000000  0.00000000000000000000  0.00000000000000000000
27.00000000000000000000  0.00000000000000000000  0.00000000000000000000
28.00000000000000000000  0.00000000000000000000  0.00000000000000000000
26.00000000000000000000  1.00000000000000000000  0.00000000000000000000
27.00000000000000000000  1.00000000000000000000  0.00000000000000000000
26.00000000000000000000  2.00000000000000000000  0.00000000000000000000
28.00000000000000000000  0.00000000000000000000  0.00000000000000000000
29.00000000000000000000  0.00000000000000000000  0.00000000000000000000
30.00000000000000000000  0.00000000000000000000  0.00000000000000000000
28.00000000000000000000  1.00000000000000000000  0.00000000000000000000
29.00000000000000000000  1.00000000000000000000  0.00000000000000000000
28.00000000000000000000  2.00000000000000000000  0.00000000000000000000
30.00000000000000000000  0.00000000000000000000  0.00000000000000000000
31.00000000000000000000  0.00000000000000000000  0.00000000000000000000
32.00000000000000000000  0.00000000000000000000  0.00000000000000000000
30.00000000000000000000  1.00000000000000000000  0.00000000000000000000
31.00000000000000000000  1.00000000000000000000  0.00000000000000000000
30.00000000000000000000  2.00000000000000000000  0.00000000000000000000
32.00000000000000000000  0.00000000000000000000  0.00000000000000000000
33.00000000000000000000  0.00000000000000000000  0.00000000000000000000
34.00000000000000000000  0.00000000000000000000  0.00000000000000000000
32.00000000000000000000  1.00000000000000000000  0.00000000000000000000
33.00000000000000000000  1.00000000000000000000  0.00000000000000000000
32.00000000000000000000  2.00000000000000000000  0.00000000000000000000
34.00000000000000000000  0.00000000000000000000  0.00000000000000000000
35.00000000000000000000  0.00000000000000000000  0.00000000000000000000
36.00000000000000000000  0.00000000000000000000  0.00000000000000000000
34.00000000000000000000  1.00000000000000000000  0.00000000000000000000
35.00000000000000000000  1.00000000000000000000  0.00000000000000000000
34.00000000000000000000  2.00000000000000000000  0.00000000000000000000
36.00000000000000000000  0.00000000000000000000  0.00000000000000000000
37.00000000000000000000  0.00000000000000000000  0.00000000000000000000
38.00000000000000000000  0.00000000000000000000  0.00000000000000000000
36.00000000000000000000  1.00000000000000000000  0.00000000000000000000
37.00000000000000000000  1.00000000000000000000  0.00000000000000000000
36.00000000000000000000  2.00000000000000000000  0.00000000000000000000
38.00000000000000000000  0.00000000000000000000  0.00000000000000000000
39.00000000000000000000  0.00000000000000000000  0.00000000000000000000
40.00000000000000000000  0.00000000000000000000  0.00000000000000000000
38.00000000000000000000  1.00000000000000000000  0.00000000000000000000
39.00000000000000000000  1.00000000000000000000  0.00000000000000000000
38.00000000000000000000  2.00000000000000000000  0.00000000000000000000
40.00000000000000000000  0.00000000000000000000  0.00000000000000000000
41.00000000000000000000  0.00000000000000000000  0.00000000000000000000
42.00000000000000000000  0.00000000000000000000  0.00000000000000000000
40.00000000000000000000  1.00000000000000000000  0.00000000000000000000
41.00000000000000000000  1.00000000000000000000  0.00000000000000000000
40.00000000000000000000  2.00000000000000000000  0.00000000000000000000
42.00000000000000000000  0.00000000000000000000  0.00000000000000000000
43.00000000000000000000  0.00000000000000000000  0.00000000000000000000
44.00000000000000000000  0.00000000000000000000  0.00000000000000000000
42.00000000000000000000  1.00000000000000000000  0.00000000000000000000
43.00000000000000000000  1.00000000000000000000  0.00000000000000000000
42.00000000000000000000  2.00000000000000000000  0.00000000000000000000
44.00000000000000000000  0.00000000000000000000  0.00000000000000000000
45.00000000000000000000  0.00000000000000000000  0.00000000000000000000
46.00000000000000000000  0.00000000000000000000  0.00000000000000000000
44.00000000000000000000  1.00000000000000000000  0.00000000000000000000
45.00000000000000000000  1.00000000000000000000  0.00000000000000000000
[...]
POINT_DATA 1800
SCALARS  H  double
LOOKUP_TABLE default
      7.516932882201 
      7.521602880057 
      7.535369230308 
      7.516918234450 
      7.521631348812 
      7.516883723124 
      7.535022902629 
      7.556117450829 
      7.583207727549 
      7.535019193643 
      7.556168365908 
      7.534963258519 
      7.582557595647 
      7.611958355591 
      7.641996591134 
      7.582549435327 
      7.612009977021 
      7.582471877748 
      7.641289860520 
      7.667753116723 
      7.689276494673 
      7.641280045381 
      7.667784937368 
      7.641208878661 
      7.688788506093 
      7.702234345601 
      7.707049608439 
      7.688780332124 
      7.702233433511 
      7.688743022746 
      7.706977119346 
      7.702300230005 
      7.688573534014 
      7.706972880891 
      7.702267217604 
      7.706984337360 
      7.688946050103 
      7.667924078924 
      7.640873125009 
      7.688947264095 
      7.667872527187 
      7.689003051013 
      7.641539620300 
      7.612166563812 
      7.582101987617 
      7.641546579155 
      7.612116503638 
      7.641624524703 
      7.582800857917 
      7.556283303154 
      7.534699757531 
      7.582811443150 
      7.556253120705 
      7.582881141827 
      7.535168958800 
      7.521663982280 
      7.516833473591 
      7.535178684303 
      7.521664390151 
      7.535213854504 
      7.516904464336 
      7.521601256752 
      7.535374300528 
      7.516908797114 
      7.521632354688 
      7.516896692703 
      7.535021891949 
      7.556117451403 
      7.583207901031 
      7.535019090953 
      7.556168359571 
      7.534964249905 
      7.582557573310 
      7.611958359888 
      7.641996600209 
      7.582549445276 
      7.612009971887 
      7.582471939939 
      7.641289861132 
      7.667753116756 
      7.689276495474 
      7.641280046621 
      7.667784936999 
      7.641208881558 
      7.688788506195 
      7.702234345590 
      7.707049608488 
      7.688780332193 
      7.702233433499 
      7.688743022838 
      7.706977119351 
      7.702300230004 
      7.688573534016 
      7.706972880893 
      7.702267217603 
      7.706984337362 
      7.688946050103 
      7.667924078924 
      7.640873125009 
      7.688947264095 
      7.667872527187 
      7.689003051013 
      7.641539620300 
      7.612166563812 
      7.582101987617 
      7.641546579155 
      7.612116503638 
      7.641624524703 
      7.582800857917 
      7.556283303154 
      7.534699757531 
      7.582811443150 
      7.556253120705 
      7.582881141827 
      7.535168958800 
      7.521663982280 
      7.516833473591 
      7.535178684303 
      7.521664390151 
      7.535213854504 
      7.516904464336 
      7.521601256752 
      7.535374300528 
      7.516908797114 
      7.521632354688 
      7.516896692703 
      7.535021891949 
      7.556117451403 
      7.583207901031 
      7.535019090953 
      7.556168359571 
      7.534964249905 
      7.582557573310 
      7.611958359888 
      7.641996600209 
      7.582549445276 
      7.612009971887 
      7.582471939939 
      7.641289861132 
      7.667753116756 
      7.689276495474 
      7.641280046621 
      7.667784936999 
      7.641208881558 
      7.688788506195 
      7.702234345590 
      7.707049608488 
      7.688780332193 
      7.702233433499 
      7.688743022838 
      7.706977119351 
      7.702300230004 
      7.688573534016 
      7.706972880893 
      7.702267217603 
      7.706984337362 
      7.688946050103 
      7.667924078924 
      7.640873125009 
      7.688947264095 
      7.667872527187 
      7.689003051013 
      7.641539620300 
      7.612166563812 
      7.582101987617 
      7.641546579155 
      7.612116503638 
      7.641624524703 
      7.582800857917 
      7.556283303154 
      7.534699757531 
      7.582811443150 
      7.556253120705 
      7.582881141827 
      7.535168958800 
      7.521663982280 
      7.516833473591 
      7.535178684303 
      7.521664390151 
      7.535213854504 
      7.516904464336 
      7.521601256752 
      7.535374300528 
      7.516908797114 
      7.521632354688 
      7.516896692703 
      7.535021891949 
      7.556117451403 
      7.583207901031 
      7.535019090953 
      7.556168359571 
      7.534964249905 
      7.582557573310 
      7.611958359888 
      7.641996600209 
      7.582549445276 
      7.612009971887 
      7.582471939939 
      7.641289861132 
      7.667753116756 
      7.689276495474 
      7.641280046621 
      7.667784936999 
      7.641208881558 
      7.688788506195 
      7.702234345590 
      7.707049608488 
      7.688780332193 
      7.702233433499 
      7.688743022838 
      7.706977119351 
      7.702300230004 
      7.688573534016 
      7.706972880893 
      7.702267217603 
      7.706984337362 
      7.688946050103 
      7.667924078924 
      7.640873125009 
      7.688947264095 
      7.667872527187 
      7.689003051013 
      7.641539620300 
      7.612166563812 
      7.582101987617 
      7.641546579155 
      7.612116503638 
      7.641624524703 
      7.582800857917 
      7.556283303154 
      7.534699757531 
      7.582811443150 
      7.556253120705 
      7.582881141827 
      7.535168958800 
      7.521663982280 
      7.516833473591 
      7.535178684303 
      7.521664390151 
      7.535213854504 
      7.516904464336 
      7.521601256752 
      7.535374300528 
      7.516908797114 
      7.521632354688 
      7.516896692703 
      7.535021891949 
      7.556117451403 
      7.583207901031 
      7.535019090953 
      7.556168359571 
      7.534964249905 
      7.582557573310 
      7.611958359888 
      7.641996600209 
      7.582549445276 
      7.612009971887 
      7.582471939939 
      7.641289861132 
      7.667753116756 
      7.689276495474 
      7.641280046621 
      7.667784936999 
      7.641208881558 
      7.688788506195 
      7.702234345590 
      7.707049608487 
      7.688780332193 
      7.702233433499 
      7.688743022838 
      7.706977119349 
      7.702300230004 
      7.688573534012 
      7.706972880894 
      7.702267217600 
      7.706984337357 
      7.688946050084 
      7.667924078897 
      7.640873124923 
      7.688947264092 
      7.667872527160 
      7.689003050776 
      7.641539619775 
      7.612166562961 
      7.582101975431 
      7.641546577619 
      7.612116505290 
      7.641624520550 
      7.582800834160 
      7.556283274847 
      7.534699140328 
      7.582811419088 
      7.556253130109 
      7.582881142034 
      7.535169363075 
      7.521662303978 
      7.516813643176 
      7.535179182374 
      7.521662344259 
      7.535215320192 
      7.535223418908 
      7.535206366505 
      7.535208537203 
      7.521657932305 
      7.521650418093 
      7.516822966076 
      7.582897361232 
      7.582853498860 
      7.582867338952 
      7.556250066845 
      7.556248907900 
      7.534716571451 
      7.641641315778 
      7.641587523532 
      7.641606231667 
      7.612116351809 
      7.612124391976 
      7.582135504694 
      7.689014104251 
      7.688970828944 
      7.688986692679 
      7.667875464270 
      7.667890304286 
      7.640910806038 
      7.706985696493 
      7.706969303676 
      7.706975674175 
      7.702272457812 
      7.702288477033 
      7.688601281287 
      7.688734194166 
      7.688751127683 
      7.688745497154 
      7.702239001219 
      7.702249499273 
      7.707056605349 
      7.641192967255 
      7.641237201312 
      7.641222102939 
      7.667788374540 
      7.667788937962 
      7.689259727639 
      7.582454818401 
      7.582509676622 
      7.582491054280 
      7.612009739026 
      7.612000490694 
      7.641962597861 
      7.534952590341 
      7.534996956118 
      7.534981499127 
      7.556164740182 
      7.556149842699 
      7.583170207870 
      7.516895207646 
      7.516911984513 
      7.516904996588 
      7.521627069147 
      7.521612270455 
      7.535347644635 
      7.535223132154 
      7.535206121003 
      7.535210184307 
      7.521659469178 
      7.521649829320 
      7.516827794772 
      7.582897380330 
      7.582853488939 
      7.582867457743 
      7.556250120909 
      7.556248913785 
      7.534716881400 
      7.641641318416 
      7.641587524792 
      7.641606237525 
      7.612116352820 
      7.612124391444 
      7.582135524725 
      7.689014104526 
      7.688970829047 
      7.688986692881 
      7.667875464282 
      7.667890304280 
      7.640910807260 
      7.706985696508 
      7.706969303680 
      7.706975674182 
      7.702272457813 
      7.702288477034 
      7.688601281333 
      7.688734194166 
      7.688751127683 
      7.688745497154 
      7.702239001219 
      7.702249499273 
      7.707056605350 
      7.641192967255 
      7.641237201312 
      7.641222102939 
      7.667788374540 
      7.667788937962 
      7.689259727639 
      7.582454818401 
      7.582509676622 
      7.582491054280 
      7.612009739026 
      7.612000490694 
      7.641962597861 
      7.534952590341 
      7.534996956118 
      7.534981499127 
      7.556164740182 
      7.556149842699 
      7.583170207870 
      7.516895207646 
      7.516911984513 
      7.516904996588 
      7.521627069147 
      7.521612270455 
      7.535347644635 
      7.535223132154 
      7.535206121003 
      7.535210184307 
      7.521659469178 
      7.521649829320 
      7.516827794772 
      7.582897380330 
      7.582853488939 
      7.582867457743 
      7.556250120909 
      7.556248913785 
      7.534716881400 
      7.641641318416 
      7.641587524792 
      7.641606237525 
      7.612116352820 
      7.612124391444 
      7.582135524725 
      7.689014104526 
      7.688970829047 
      7.688986692881 
      7.667875464282 
      7.667890304280 
      7.640910807260 
      7.706985696508 
      7.706969303680 
      7.706975674182 
      7.702272457813 
      7.702288477034 
      7.688601281333 
      7.688734194166 
      7.688751127683 
      7.688745497154 
      7.702239001219 
      7.702249499273 
      7.707056605350 
      7.641192967255 
      7.641237201312 
      7.641222102939 
      7.667788374540 
      7.667788937962 
      7.689259727639 
      7.582454818401 
      7.582509676622 
      7.582491054280 
      7.612009739026 
      7.612000490694 
      7.641962597861 
      7.534952590341 
      7.534996956118 
      7.534981499127 
      7.556164740182 
      7.556149842699 
      7.583170207870 
      7.516895207646 
      7.516911984513 
      7.516904996588 
      7.521627069147 
      7.521612270455 
      7.535347644635 
      7.535223132154 
      7.535206121003 
      7.535210184307 
      7.521659469178 
      7.521649829320 
      7.516827794772 
      7.582897380330 
      7.582853488939 
      7.582867457743 
      7.556250120909 
      7.556248913785 
      7.534716881400 
      7.641641318416 
      7.641587524792 
      7.641606237525 
      7.612116352820 
      7.612124391444 
      7.582135524725 
      7.689014104526 
      7.688970829047 
      7.688986692881 
      7.667875464282 
      7.667890304280 
      7.640910807260 
      7.706985696508 
      7.706969303680 
      7.706975674182 
      7.702272457813 
      7.702288477034 
      7.688601281333 
      7.688734194166 
      7.688751127683 
      7.688745497154 
      7.702239001219 
      7.702249499273 
      7.707056605350 
      7.641192967255 
      7.641237201312 
      7.641222102939 
      7.667788374540 
      7.667788937962 
      7.689259727639 
      7.582454818401 
      7.582509676622 
      7.582491054280 
      7.612009739026 
      7.612000490694 
      7.641962597861 
      7.534952590341 
      7.534996956118 
      7.534981499127 
      7.556164740182 
      7.556149842699 
      7.583170207870 
      7.516895207646 
      7.516911984513 
      7.516904996588 
      7.521627069147 
      7.521612270455 
      7.535347644635 
      7.535223132154 
      7.535206121003 
      7.535210184307 
      7.521659469178 
      7.521649829320 
      7.516827794772 
      7.582897380330 
      7.582853488939 
      7.582867457743 
      7.556250120909 
      7.556248913785 
      7.534716881400 
      7.641641318416 
      7.641587524792 
      7.641606237525 
      7.612116352820 
      7.612124391444 
      7.582135524725 
      7.689014104526 
      7.688970829047 
      7.688986692881 
      7.667875464282 
      7.667890304280 
      7.640910807260 
      7.706985696508 
      7.706969303680 
      7.706975674181 
      7.702272457813 
      7.702288477034 
      7.688601281332 
      7.688734194160 
      7.688751127675 
      7.688745497072 
      7.702239001214 
      7.702249499276 
      7.707056605338 
      7.641192966975 
      7.641237200419 
      7.641222100341 
      7.667788374598 
      7.667788938131 
      7.689259727235 
      7.582454800029 
      7.582509649106 
      7.582491020293 
      7.612009742364 
      7.612000491881 
      7.641962593706 
      7.534951951388 
      7.534996445130 
      7.534981605412 
      7.556164772925 
      7.556149835500 
      7.583170232279 
      7.516866772949 
      7.516906523455 
      7.516914370759 
      7.521627768439 
      7.521611663879 
      7.535346415138 
      7.516913114719 
      7.521611129258 
      7.535345132268 
      7.516912209403 
      7.521628304350 
      7.516884655990 
      7.534976244546 
      7.556147183956 
      7.583163823969 
      7.535004979278 
      7.556167257505 
      7.534965059674 
      7.582483377162 
      7.611996087620 
      7.641953482941 
      7.582524476875 
      7.612013104447 
      7.582475166581 
      7.641215490800 
      7.667784278914 
      7.689251160795 
      7.641253132917 
      7.667791535019 
      7.641211740979 
      7.688742715740 
      7.702246459531 
      7.707051979865 
      7.688761849059 
      7.702240893726 
      7.688744387431 
      7.706977952339 
      7.702288342126 
      7.688602563609 
      7.706970485770 
      7.702272276943 
      7.706983714007 
      7.688993051578 
      7.667893105335 
      7.640917508483 
      7.688962106505 
      7.667873085487 
      7.689000657206 
      7.641614015736 
      7.612128921674 
      7.582144886138 
      7.641572517076 
      7.612112649587 
      7.641621231014 
      7.582873654607 
      7.556253376783 
      7.534725209231 
      7.582838028165 
      7.556246673521 
      7.582878203889 
      7.535212659523 
      7.521652614789 
      7.516832043631 
      7.535195895814 
      7.521657721663 
      7.535212434839 
      7.516902981110 
      7.521612438736 
      7.535346395387 
      7.516910670050 
      7.521627602116 
      7.516897358066 
      7.534975647543 
      7.556147310722 
      7.583163931164 
      7.535005134506 
      7.556167166928 
      7.534966724249 
      7.582483365477 
      7.611996087540 
      7.641953493347 
      7.582524514424 
      7.612013094948 
      7.582475240812 
      7.641215492946 
      7.667784278559 
      7.689251161637 
      7.641253135214 
      7.667791534637 
      7.641211742868 
      7.688742715901 
      7.702246459512 
      7.707051979903 
      7.688761849129 
      7.702240893723 
      7.688744387461 
      7.706977952343 
      7.702288342125 
      7.688602563610 
      7.706970485771 
      7.702272276943 
      7.706983714007 
      7.688993051578 
      7.667893105335 
      7.640917508483 
      7.688962106505 
      7.667873085487 
      7.689000657206 
      7.641614015736 
      7.612128921674 
      7.582144886138 
      7.641572517076 
      7.612112649587 
      7.641621231014 
      7.582873654607 
      7.556253376783 
      7.534725209231 
      7.582838028165 
      7.556246673521 
      7.582878203889 
      7.535212659523 
      7.521652614789 
      7.516832043631 
      7.535195895814 
      7.521657721663 
      7.535212434839 
      7.516902981110 
      7.521612438736 
      7.535346395387 
      7.516910670050 
      7.521627602116 
      7.516897358066 
      7.534975647543 
      7.556147310722 
      7.583163931164 
      7.535005134506 
      7.556167166928 
      7.534966724249 
      7.582483365477 
      7.611996087540 
      7.641953493347 
      7.582524514424 
      7.612013094948 
      7.582475240812 
      7.641215492946 
      7.667784278559 
      7.689251161637 
      7.641253135214 
      7.667791534637 
      7.641211742868 
      7.688742715901 
      7.702246459512 
      7.707051979903 
      7.688761849129 
      7.702240893723 
      7.688744387461 
      7.706977952343 
      7.702288342125 
      7.688602563610 
      7.706970485771 
      7.702272276943 
      7.706983714007 
      7.688993051578 
      7.667893105335 
      7.640917508483 
      7.688962106505 
      7.667873085487 
      7.689000657206 
      7.641614015736 
      7.612128921674 
      7.582144886138 
      7.641572517076 
      7.612112649587 
      7.641621231014 
      7.582873654607 
      7.556253376783 
      7.534725209231 
      7.582838028165 
      7.556246673521 
      7.582878203889 
      7.535212659523 
      7.521652614789 
      7.516832043631 
      7.535195895814 
      7.521657721663 
      7.535212434839 
      7.516902981110 
      7.521612438736 
      7.535346395387 
      7.516910670050 
      7.521627602116 
      7.516897358066 
      7.534975647543 
      7.556147310722 
      7.583163931164 
      7.535005134506 
      7.556167166928 
      7.534966724249 
      7.582483365477 
      7.611996087540 
      7.641953493347 
      7.582524514424 
      7.612013094948 
      7.582475240812 
      7.641215492946 
      7.667784278559 
      7.689251161637 
      7.641253135214 
      7.667791534637 
      7.641211742868 
      7.688742715901 
      7.702246459512 
      7.707051979903 
      7.688761849129 
      7.702240893723 
      7.688744387461 
      7.706977952343 
      7.702288342125 
      7.688602563610 
      7.706970485771 
      7.702272276943 
      7.706983714007 
      7.688993051578 
      7.667893105335 
      7.640917508483 
      7.688962106505 
      7.667873085487 
      7.689000657206 
      7.641614015736 
      7.612128921674 
      7.582144886138 
      7.641572517076 
      7.612112649587 
      7.641621231014 
      7.582873654607 
      7.556253376783 
      7.534725209231 
      7.582838028165 
      7.556246673521 
      7.582878203889 
      7.535212659523 
      7.521652614789 
      7.516832043631 
      7.535195895814 
      7.521657721663 
      7.535212434839 
      7.516902981110 
      7.521612438736 
      7.535346395387 
      7.516910670050 
      7.521627602116 
      7.516897358066 
      7.534975647543 
      7.556147310722 
      7.583163931164 
      7.535005134506 
      7.556167166928 
      7.534966724249 
      7.582483365477 
      7.611996087540 
      7.641953493347 
      7.582524514424 
      7.612013094948 
      7.582475240812 
      7.641215492946 
      7.667784278559 
      7.689251161637 
      7.641253135214 
      7.667791534637 
      7.641211742868 
      7.688742715901 
      7.702246459512 
      7.707051979903 
      7.688761849129 
      7.702240893722 
      7.688744387460 
      7.706977952341 
      7.702288342123 
      7.688602563593 
      7.706970485770 
      7.702272276942 
      7.706983713991 
      7.688993051526 
      7.667893105256 
      7.640917507390 
      7.688962106411 
      7.667873085571 
      7.689000656845 
      7.641614013780 
      7.612128921160 
      7.582144845274 
      7.641572514386 
      7.612112650230 
      7.641621227814 
      7.582873570148 
      7.556253420108 
      7.534724398520 
      7.582837990899 
      7.556246600335 
      7.582878218797 
      7.535209975561 
      7.521653320445 
      7.516826873209 
      7.535195720075 
      7.521656299077 
      7.535213433329 
      7.535213433329 
      7.535195720075 
      7.535209975561 
      7.521656299077 
      7.521653320445 
      7.516826873209 