# vtk DataFile Version 2.0
NDG-FEM NonhydrostaticStandingWave2d Simulation
ASCII
DATASET UNSTRUCTURED_GRID

POINTS 405 double
0.00000000000000000000  0.00000000000000000000  0.00000000000000000000
1.00000000000000000000  0.00000000000000000000  0.00000000000000000000
2.00000000000000000000  0.00000000000000000000  0.00000000000000000000
0.00000000000000000000  1.00000000000000000000  0.00000000000000000000
1.00000000000000000000  1.00000000000000000000  0.00000000000000000000
2.00000000000000000000  1.00000000000000000000  0.00000000000000000000
0.00000000000000000000  2.00000000000000000000  0.00000000000000000000
1.00000000000000000000  2.00000000000000000000  0.00000000000000000000
2.00000000000000000000  2.00000000000000000000  0.00000000000000000000
2.00000000000000000000  0.00000000000000000000  0.00000000000000000000
3.00000000000000000000  0.00000000000000000000  0.00000000000000000000
4.00000000000000000000  0.00000000000000000000  0.00000000000000000000
2.00000000000000000000  1.00000000000000000000  0.00000000000000000000
3.00000000000000000000  1.00000000000000000000  0.00000000000000000000
4.00000000000000000000  1.00000000000000000000  0.00000000000000000000
2.00000000000000000000  2.00000000000000000000  0.00000000000000000000
3.00000000000000000000  2.00000000000000000000  0.00000000000000000000
4.00000000000000000000  2.00000000000000000000  0.00000000000000000000
4.00000000000000000000  0.00000000000000000000  0.00000000000000000000
5.00000000000000000000  0.00000000000000000000  0.00000000000000000000
6.00000000000000000000  0.00000000000000000000  0.00000000000000000000
4.00000000000000000000  1.00000000000000000000  0.00000000000000000000
5.00000000000000000000  1.00000000000000000000  0.00000000000000000000
6.00000000000000000000  1.00000000000000000000  0.00000000000000000000
4.00000000000000000000  2.00000000000000000000  0.00000000000000000000
5.00000000000000000000  2.00000000000000000000  0.00000000000000000000
6.00000000000000000000  2.00000000000000000000  0.00000000000000000000
6.00000000000000000000  0.00000000000000000000  0.00000000000000000000
7.00000000000000000000  0.00000000000000000000  0.00000000000000000000
8.00000000000000000000  0.00000000000000000000  0.00000000000000000000
6.00000000000000000000  1.00000000000000000000  0.00000000000000000000
7.00000000000000000000  1.00000000000000000000  0.00000000000000000000
8.00000000000000000000  1.00000000000000000000  0.00000000000000000000
6.00000000000000000000  2.00000000000000000000  0.00000000000000000000
7.00000000000000000000  2.00000000000000000000  0.00000000000000000000
8.00000000000000000000  2.00000000000000000000  0.00000000000000000000
8.00000000000000000000  0.00000000000000000000  0.00000000000000000000
9.00000000000000000000  0.00000000000000000000  0.00000000000000000000
10.00000000000000000000  0.00000000000000000000  0.00000000000000000000
8.00000000000000000000  1.00000000000000000000  0.00000000000000000000
9.00000000000000000000  1.00000000000000000000  0.00000000000000000000
10.00000000000000000000  1.00000000000000000000  0.00000000000000000000
8.00000000000000000000  2.00000000000000000000  0.00000000000000000000
9.00000000000000000000  2.00000000000000000000  0.00000000000000000000
10.00000000000000000000  2.00000000000000000000  0.00000000000000000000
10.00000000000000000000  0.00000000000000000000  0.00000000000000000000
11.00000000000000000000  0.00000000000000000000  0.00000000000000000000
12.00000000000000000000  0.00000000000000000000  0.00000000000000000000
10.00000000000000000000  1.00000000000000000000  0.00000000000000000000
11.00000000000000000000  1.00000000000000000000  0.00000000000000000000
12.00000000000000000000  1.00000000000000000000  0.00000000000000000000
10.00000000000000000000  2.00000000000000000000  0.00000000000000000000
11.00000000000000000000  2.00000000000000000000  0.00000000000000000000
12.00000000000000000000  2.00000000000000000000  0.00000000000000000000
12.00000000000000000000  0.00000000000000000000  0.00000000000000000000
13.00000000000000000000  0.00000000000000000000  0.00000000000000000000
14.00000000000000000000  0.00000000000000000000  0.00000000000000000000
12.00000000000000000000  1.00000000000000000000  0.00000000000000000000
13.00000000000000000000  1.00000000000000000000  0.00000000000000000000
14.00000000000000000000  1.00000000000000000000  0.00000000000000000000
12.00000000000000000000  2.00000000000000000000  0.00000000000000000000
13.00000000000000000000  2.00000000000000000000  0.00000000000000000000
14.00000000000000000000  2.00000000000000000000  0.00000000000000000000
14.00000000000000000000  0.00000000000000000000  0.00000000000000000000
15.00000000000000000000  0.00000000000000000000  0.00000000000000000000
16.00000000000000000000  0.00000000000000000000  0.00000000000000000000
14.00000000000000000000  1.00000000000000000000  0.00000000000000000000
15.00000000000000000000  1.00000000000000000000  0.00000000000000000000
16.00000000000000000000  1.00000000000000000000  0.00000000000000000000
14.00000000000000000000  2.00000000000000000000  0.00000000000000000000
15.00000000000000000000  2.00000000000000000000  0.00000000000000000000
16.00000000000000000000  2.00000000000000000000  0.00000000000000000000
16.00000000000000000000  0.00000000000000000000  0.00000000000000000000
17.00000000000000000000  0.00000000000000000000  0.00000000000000000000
18.00000000000000000000  0.00000000000000000000  0.00000000000000000000
16.00000000000000000000  1.00000000000000000000  0.00000000000000000000
17.00000000000000000000  1.00000000000000000000  0.00000000000000000000
18.00000000000000000000  1.00000000000000000000  0.00000000000000000000
16.00000000000000000000  2.00000000000000000000  0.00000000000000000000
17.00000000000000000000  2.00000000000000000000  0.00000000000000000000
18.00000000000000000000  2.00000000000000000000  0.00000000000000000000
18.00000000000000000000  0.00000000000000000000  0.00000000000000000000
19.00000000000000000000  0.00000000000000000000  0.00000000000000000000
20.00000000000000000000  0.00000000000000000000  0.00000000000000000000
18.00000000000000000000  1.00000000000000000000  0.00000000000000000000
19.00000000000000000000  1.00000000000000000000  0.00000000000000000000
20.00000000000000000000  1.00000000000000000000  0.00000000000000000000
18.00000000000000000000  2.00000000000000000000  0.00000000000000000000
19.00000000000000000000  2.00000000000000000000  0.00000000000000000000
20.00000000000000000000  2.00000000000000000000  0.00000000000000000000
20.00000000000000000000  0.00000000000000000000  0.00000000000000000000
21.00000000000000000000  0.00000000000000000000  0.00000000000000000000
22.00000000000000000000  0.00000000000000000000  0.00000000000000000000
20.00000000000000000000  1.00000000000000000000  0.00000000000000000000
21.00000000000000000000  1.00000000000000000000  0.00000000000000000000
22.00000000000000000000  1.00000000000000000000  0.00000000000000000000
20.00000000000000000000  2.00000000000000000000  0.00000000000000000000
21.00000000000000000000  2.00000000000000000000  0.00000000000000000000
22.00000000000000000000  2.00000000000000000000  0.00000000000000000000
22.00000000000000000000  0.00000000000000000000  0.00000000000000000000
23.00000000000000000000  0.00000000000000000000  0.00000000000000000000
24.00000000000000000000  0.00000000000000000000  0.00000000000000000000
22.00000000000000000000  1.00000000000000000000  0.00000000000000000000
23.00000000000000000000  1.00000000000000000000  0.00000000000000000000
24.00000000000000000000  1.00000000000000000000  0.00000000000000000000
22.00000000000000000000  2.00000000000000000000  0.00000000000000000000
23.00000000000000000000  2.00000000000000000000  0.00000000000000000000
24.00000000000000000000  2.00000000000000000000  0.00000000000000000000
24.00000000000000000000  0.00000000000000000000  0.00000000000000000000
25.00000000000000000000  0.00000000000000000000  0.00000000000000000000
26.00000000000000000000  0.00000000000000000000  0.00000000000000000000
24.00000000000000000000  1.00000000000000000000  0.00000000000000000000
25.00000000000000000000  1.00000000000000000000  0.00000000000000000000
26.00000000000000000000  1.00000000000000000000  0.00000000000000000000
24.00000000000000000000  2.00000000000000000000  0.00000000000000000000
25.00000000000000000000  2.00000000000000000000  0.00000000000000000000
26.00000000000000000000  2.00000000000000000000  0.00000000000000000000
26.00000000000000000000  0.00000000000000000000  0.00000000000000000000
27.00000000000000000000  0.00000000000000000000  0.00000000000000000000
28.00000000000000000000  0.00000000000000000000  0.00000000000000000000
26.00000000000000000000  1.00000000000000000000  0.00000000000000000000
27.00000000000000000000  1.00000000000000000000  0.00000000000000000000
28.00000000000000000000  1.00000000000000000000  0.00000000000000000000
26.00000000000000000000  2.00000000000000000000  0.00000000000000000000
27.00000000000000000000  2.00000000000000000000  0.00000000000000000000
28.00000000000000000000  2.00000000000000000000  0.00000000000000000000
28.00000000000000000000  0.00000000000000000000  0.00000000000000000000
29.00000000000000000000  0.00000000000000000000  0.00000000000000000000
30.00000000000000000000  0.00000000000000000000  0.00000000000000000000
28.00000000000000000000  1.00000000000000000000  0.00000000000000000000
29.00000000000000000000  1.00000000000000000000  0.00000000000000000000
30.00000000000000000000  1.00000000000000000000  0.00000000000000000000
28.00000000000000000000  2.00000000000000000000  0.00000000000000000000
29.00000000000000000000  2.00000000000000000000  0.00000000000000000000
30.00000000000000000000  2.00000000000000000000  0.00000000000000000000
0.00000000000000000000  2.00000000000000000000  0.00000000000000000000
1.00000000000000000000  2.00000000000000000000  0.00000000000000000000
[...]
POINT_DATA 405
SCALARS  H  double
LOOKUP_TABLE default
      7.606002426255 
      7.606363860904 
      7.606924312449 
      7.606031385766 
      7.606356469338 
      7.606907976441 
      7.605957657101 
      7.606388970022 
      7.606855949457 
      7.606849045785 
      7.608074841269 
      7.609365383900 
      7.606840112251 
      7.608077179203 
      7.609361484801 
      7.606806609547 
      7.608082553915 
      7.609361028379 
      7.609453173596 
      7.611344381480 
      7.613373203825 
      7.609450553511 
      7.611347103570 
      7.613371830718 
      7.609447212845 
      7.611348196872 
      7.613371485175 
      7.613516797862 
      7.615458533769 
      7.617485624874 
      7.613515318846 
      7.615459534851 
      7.617483030090 
      7.613514465917 
      7.615461958309 
      7.617478709157 
      7.617612312665 
      7.618570057792 
      7.619373728197 
      7.617608285828 
      7.618568413625 
      7.619375862076 
      7.617600964663 
      7.618563962060 
      7.619380503334 
      7.619371725477 
      7.618584527477 
      7.617669810686 
      7.619374747605 
      7.618585444491 
      7.617667989379 
      7.619381695023 
      7.618586993667 
      7.617664001103 
      7.617542815008 
      7.615546884992 
      7.613579581553 
      7.617540457035 
      7.615546956882 
      7.613580880281 
      7.617535305671 
      7.615547612195 
      7.613584105790 
      7.613441469887 
      7.611378639723 
      7.609444747575 
      7.613442709458 
      7.611378021371 
      7.609443505594 
      7.613445744526 
      7.611376436081 
      7.609440936493 
      7.609353693017 
      7.608057563870 
      7.606824194388 
      7.609352987962 
      7.608058851728 
      7.606825111212 
      7.609351636876 
      7.608061736156 
      7.606827651639 
      7.606789577245 
      7.606430007350 
      7.605970089208 
      7.606789689472 
      7.606428071322 
      7.605970563605 
      7.606790361768 
      7.606423163294 
      7.605969579925 
      7.605968558368 
      7.606432634240 
      7.606819569329 
      7.605969670551 
      7.606434288700 
      7.606817380229 
      7.605969945935 
      7.606438305635 
      7.606815660506 
      7.606854553504 
      7.608125719405 
      7.609431205928 
      7.606853130808 
      7.608123464518 
      7.609431508625 
      7.606851370410 
      7.608118345898 
      7.609428524256 
      7.609517915037 
      7.611431243305 
      7.613455138595 
      7.609517587642 
      7.611430518573 
      7.613460303335 
      7.609514683245 
      7.611429264502 
      7.613479640078 
      7.613587842887 
      7.615531324691 
      7.617562500643 
      7.613596541985 
      7.615535731724 
      7.617537538047 
      7.613619093220 
      7.615543252627 
      7.617584269536 
      7.617560614427 
      7.618590203644 
      7.619456434606 
      7.617498875334 
      7.618658718623 
      7.619138936235 
      7.617598196382 
      7.618626562061 
      7.619305571980 
      7.605984447559 
      7.606382554147 
      7.606876506039 
      7.605942364491 
      7.606407256787 
      7.606883032922 
      7.606012110816 
      7.606388192960 
      7.606874600136 
      7.606805215563 
      7.608083570499 
      7.609362047160 
      7.606790868416 
      7.608080551703 
      7.609372588673 
      7.606813243591 
      7.608082814047 
      7.609366162778 
      7.609446891347 
      7.611347189418 
      7.613371903465 
      7.609450287375 
      7.611345481250 
      7.613376892396 
      7.609456417616 
      7.611349544015 
      7.613370887947 
      7.613514233691 
      7.615462234829 
      7.617479710083 
      7.613518615743 
      7.615463583892 
      7.617478271272 
      7.613514794118 
      7.615464732382 
      7.617480974288 
      7.617602135663 
      7.618563574144 
      7.619379779346 
      7.617599841429 
      7.618560262936 
      7.619380600282 
      7.617604973413 
      7.618560129086 
      7.619374605928 
      7.619380810558 
      7.618587231038 
      7.617664415254 
      7.619383054338 
      7.618586821974 
      7.617662030756 
      7.619376305688 
      7.618584505230 
      7.617663279982 
      7.617535722350 
      7.615547408561 
      7.613584030175 
      7.617533086134 
      7.615549445138 
      7.613586211128 
      7.617535043336 
      7.615552280626 
      7.613586880529 
      7.613445687319 
      7.611376497168 
      7.609441054915 
      7.613447104951 
      7.611374298020 
      7.609439458954 
      7.613446486931 
      7.611371675564 
      7.609439522369 
      7.609351750120 
      7.608061654509 
      7.606827345001 
      7.609351567830 
      7.608064416952 
      7.606829329828 
      7.609352968892 
      7.608067079336 
      7.606828836079 
      7.606790201668 
      7.606423461026 
      7.605969973006 
      7.606791008256 
      7.606420382161 
      7.605964249753 
      7.606790267826 
      7.606418938045 
      7.605961545826 
      7.605970201300 
      7.606437933038 
      7.606815001145 
      7.605964872296 
      7.606437975084 
      7.606824285078 
      7.605961302651 
      7.606432552784 
      7.606828208227 
      7.606850935839 
      7.608118628357 
      7.609429921691 
      7.606859677311 
      7.608118940728 
      7.609418384138 
      7.606864596414 
      7.608129500505 
      7.609419532062 
      7.609515646288 
      7.611430924868 
      7.613479981423 
      7.609508578192 
      7.611427984769 
      7.613475223188 
      7.609511025530 
      7.611422211418 
      7.613474952879 
      7.613617481101 
      7.615542721172 
      7.617585108003 
      7.613617693806 
      7.615565125894 
      7.617541610269 
      7.613620308083 
      7.615562627446 
      7.617550040576 
      7.617603725105 
      7.618610050362 
      7.619343465910 
      7.617490418587 
      7.618707556939 
      7.618998450625 
      7.617570439369 
      7.618666353347 
      7.619187304032 
      7.606073117336 
      7.606377612360 
      7.606883988493 
      7.606068594331 
      7.606385316411 
      7.606897363896 
      7.606153668188 
      7.606334143781 
      7.606941367875 
      7.606802192567 
      7.608084428879 
      7.609364820078 
      7.606814590368 
      7.608091545076 
      7.609370714158 
      7.606871310530 
      7.608084985303 
      7.609376122001 
      7.609453525220 
      7.611351008665 
      7.613371118069 
      7.609459669340 
      7.611345714352 
      7.613369035192 
      7.609468713274 
      7.611344283615 
      7.613364608472 
      7.613514730559 
      7.615464209863 
      7.617480040271 
      7.613510152640 
      7.615463671313 
      7.617490333017 
      7.613507424838 
      7.615464314741 
      7.617492799798 
      7.617603701604 
      7.618560682994 
      7.619375557908 
      7.617617157146 
      7.618561694319 
      7.619366638665 
      7.617622503749 
      7.618562483483 
      7.619361977027 
      7.619377275314 
      7.618584245795 
      7.617662922690 
      7.619366388703 
      7.618581435540 
      7.617666393522 
      7.619360830312 
      7.618580468881 
      7.617667917369 
      7.617534623967 
      7.615552344355 
      7.613586906114 
      7.617539204363 
      7.615554733675 
      7.613587072245 
      7.617541024044 
      7.615555691131 
      7.613587053955 
      7.613446556334 
      7.611371740175 
      7.609439596031 
      7.613445406438 
      7.611369032107 
      7.609441194046 
      7.613444857650 
      7.611368018233 
      7.609442008678 
      7.609352940052 
      7.608066926487 
      7.606829089288 
      7.609355768726 
      7.608069025758 
      7.606824911352 
      7.609357089096 
      7.608069870202 
      7.606822626911 
      7.606790498489 
      7.606418891491 
      7.605961273199 
      7.606787187039 
      7.606419802211 
      7.605962877313 
      7.606785420569 
      7.606420569676 
      7.605963793492 
      7.605961232193 
      7.606432893162 
      7.606828864708 
      7.605960406114 
      7.606424924279 
      7.606826383991 
      7.605960187015 
      7.606421667820 
      7.606824576814 
      7.606865198211 
      7.608129702605 
      7.609417284173 
      7.606863758524 
      7.608142695981 
      7.609432465083 
      7.606862660811 
      7.608146852314 
      7.609443739450 
      7.609508456752 
      7.611420763644 
      7.613474054084 
      7.609519532885 
      7.611422295388 
      7.613471008738 
      7.609530928335 
      7.611419897942 
      7.613474055626 
      7.613617734469 
      7.615564125698 
      7.617559736233 
      7.613606455058 
      7.615546971026 
      7.617568640724 
      7.613621159302 
      7.615522063645 
      7.617568796730 
      7.617572677229 
      7.618666814234 
      7.619206385448 
      7.617612535327 
      7.618616451019 
      7.619417629196 
      7.617615730214 
      7.618679223820 
      7.619190452053 
SCALARS  HU  double
LOOKUP_TABLE default
     -0.001309192320 
      0.256058600563 
      0.489292119657 
     -0.001884469423 
      0.256080295508 
      0.489259102646 
     -0.001432182400 
      0.256249731492 
      0.489053948122 
      0.487518642749 
      0.678372877702 
      0.808251578051 
      0.487451888566 
      0.678358639471 
      0.808217075834 
      0.487174137466 
      0.678419857110 
      0.808221780233 
      0.806854126128 
      0.860411414038 
      0.830346419591 
      0.806826983728 
      0.860420807634 
      0.830335060912 
      0.806807054132 
      0.860421306385 
      0.830338429050 
      0.830976951781 
      0.715097981031 
      0.524115355824 
      0.830964384596 
      0.715109953773 
      0.524098618091 
      0.830960410789 
      0.715128120987 
      0.524071652978 
      0.526980590608 
      0.277416809893 
     -0.003068235896 
      0.526951129216 
      0.277404525242 
     -0.003053058708 
      0.526894981181 
      0.277373968373 
     -0.003021346681 
      0.000792135959 
     -0.279554989870 
     -0.528870645159 
      0.000816482299 
     -0.279550473356 
     -0.528883183679 
      0.000870196039 
     -0.279543819070 
     -0.528908572318 
     -0.526042468298 
     -0.716495268282 
     -0.831469154386 
     -0.526060108904 
     -0.716492634294 
     -0.831465217469 
     -0.526096733382 
     -0.716484304264 
     -0.831457111035 
     -0.830825518915 
     -0.860393868605 
     -0.806682239189 
     -0.830821342141 
     -0.860395988677 
     -0.806675158395 
     -0.830811623725 
     -0.860401718909 
     -0.806658695310 
     -0.808090959395 
     -0.678248743810 
     -0.487291802619 
     -0.808086208292 
     -0.678254750921 
     -0.487302646507 
     -0.808071893901 
     -0.678268698695 
     -0.487334049248 
     -0.489841426902 
     -0.255801111712 
      0.000419106464 
     -0.489846023196 
     -0.255785805375 
      0.000421652850 
     -0.489862967019 
     -0.255749096385 
      0.000439796503 
     -0.002491273341 
      0.253865242906 
      0.488272967852 
     -0.002491521095 
      0.253851186482 
      0.488284860690 
     -0.002488086712 
      0.253820300873 
      0.488283105097 
      0.485711629700 
      0.677064975014 
      0.807331974442 
      0.485723220658 
      0.677077612958 
      0.807329909079 
      0.485718431132 
      0.677109799360 
      0.807360227360 
      0.805961319094 
      0.860123076855 
      0.830820978370 
      0.805968116011 
      0.860138657280 
      0.830805558861 
      0.805998283612 
      0.860170845374 
      0.830700293012 
      0.831518451537 
      0.716515767660 
      0.525710630298 
      0.831480524490 
      0.716512265765 
      0.525956397458 
      0.831356568654 
      0.716500603942 
      0.525712040636 
      0.527851887417 
      0.280266850433 
     -0.002307322202 
      0.527572705305 
      0.280320322860 
     -0.002481748002 
      0.527393578889 
      0.280263626653 
     -0.001133427781 
     -0.001706360353 
      0.256393300870 
      0.488869046848 
     -0.001472396298 
      0.256398027652 
      0.489116983656 
     -0.000963314563 
      0.256310879183 
      0.488890841588 
      0.487205544704 
      0.678398050780 
      0.808227068715 
      0.487011335345 
      0.678391922090 
      0.808294631312 
      0.487199746946 
      0.678406870604 
      0.808228733920 
      0.806792949558 
      0.860417357093 
      0.830340608734 
      0.806805685636 
      0.860400332345 
      0.830365110421 
      0.806863668597 
      0.860410812034 
      0.830315381318 
      0.830957806307 
      0.715131340789 
      0.524077890938 
      0.830980420125 
      0.715139048035 
      0.524069494856 
      0.830948014025 
      0.715144106413 
      0.524088924814 
      0.526902654735 
      0.277371229913 
     -0.003025754057 
      0.526886849424 
      0.277349638393 
     -0.003023835300 
      0.526929529657 
      0.277348132806 
     -0.003069501198 
      0.000864356126 
     -0.279541584379 
     -0.528905513171 
      0.000879681014 
     -0.279546763564 
     -0.528913412938 
      0.000824116784 
     -0.279563207364 
     -0.528889228991 
     -0.526093714835 
     -0.716486276254 
     -0.831458084204 
     -0.526106120357 
     -0.716471947263 
     -0.831459281946 
     -0.526077996879 
     -0.716457735564 
     -0.831475560651 
     -0.830811783326 
     -0.860400532316 
     -0.806659948776 
     -0.830814213160 
     -0.860404780365 
     -0.806643331194 
     -0.830830920780 
     -0.860402452475 
     -0.806631517809 
     -0.808073414045 
     -0.678268770057 
     -0.487330303213 
     -0.808058185428 
     -0.678284170956 
     -0.487356299172 
     -0.808048143994 
     -0.678301810837 
     -0.487363306003 
     -0.489860285963 
     -0.255751166225 
      0.000436381321 
     -0.489878981862 
     -0.255726758546 
      0.000480790066 
     -0.489885402326 
     -0.255714517629 
      0.000501098689 
     -0.002489479354 
      0.253822992496 
      0.488290201004 
     -0.002452447026 
      0.253827845918 
      0.488225645803 
     -0.002426198723 
      0.253869816538 
      0.488204926560 
      0.485725282974 
      0.677108242192 
      0.807347441237 
      0.485673530120 
      0.677094873422 
      0.807433449482 
      0.485641967876 
      0.677025158476 
      0.807428965841 
      0.805986905831 
      0.860161831959 
      0.830683463322 
      0.806031858734 
      0.860196956382 
      0.830762681809 
      0.806020899801 
      0.860228080227 
      0.830758446924 
      0.831350081402 
      0.716492178411 
      0.525618958652 
      0.831378277451 
      0.716379232966 
      0.526023014579 
      0.831355854258 
      0.716348161173 
      0.525967000369 
      0.527384433144 
      0.280368213937 
     -0.001504832798 
      0.527197276009 
      0.280322622176 
     -0.002144784115 
      0.527459246089 
      0.280086681750 
     -0.001253284695 
     -0.001349943090 
      0.256523374089 
      0.488609593709 
     -0.001537487950 
      0.256360149917 
      0.488801077506 
     -0.001328755687 
      0.256150705059 
      0.489138397315 
      0.487117955502 
      0.678435230805 
      0.808217957747 
      0.487200795516 
      0.678426935686 
      0.808261985491 
      0.487504162307 
      0.678377216527 
      0.808276971005 
      0.806850450353 
      0.860417237084 
      0.830318014274 
      0.806859471394 
      0.860386341420 
      0.830293962116 
      0.806957535471 
      0.860364922622 
      0.830270602580 
      0.830946676680 
      0.715140366515 
      0.524085333415 
      0.830902487809 
      0.715134294606 
      0.524146439416 
      0.830894552625 
      0.715133565295 
      0.524171694127 
      0.526921338714 
      0.277351836016 
     -0.003062441287 
      0.527016253607 
      0.277357984801 
     -0.003128026670 
      0.527063285169 
      0.277363629972 
     -0.003160340464 
      0.000831591435 
     -0.279564869928 
     -0.528892613346 
      0.000742710983 
     -0.279584271611 
     -0.528850099405 
      0.000702550105 
     -0.279590812298 
     -0.528832444340 
     -0.526081606853 
     -0.716457322602 
     -0.831473202335 
     -0.526031814362 
     -0.716448925317 
     -0.831496540211 
     -0.526010928085 
     -0.716446411566 
     -0.831506264753 
     -0.830829018691 
     -0.860403588792 
     -0.806632656431 
     -0.830847549223 
     -0.860395001953 
     -0.806631423985 
     -0.830855812855 
     -0.860390785288 
     -0.806631263849 
     -0.808048283449 
     -0.678300331768 
     -0.487365006961 
     -0.808048773551 
     -0.678316515646 
     -0.487342040851 
     -0.808050727946 
     -0.678323379774 
     -0.487327183198 
     -0.489886905190 
     -0.255714770449 
      0.000504513519 
     -0.489874367411 
     -0.255717191583 
      0.000488673147 
     -0.489866052618 
     -0.255721274591 
      0.000480023137 
     -0.002424274607 
      0.253866387178 
      0.488201407416 
     -0.002418231617 
      0.253924020993 
      0.488228058475 
     -0.002415191586 
      0.253944862194 
      0.488241629128 
      0.485638685656 
      0.677024005872 
      0.807441704131 
      0.485650976105 
      0.676944360463 
      0.807343367232 
      0.485663994416 
      0.676919404495 
      0.807275522561 
      0.806036788674 
      0.860240376259 
      0.830760466024 
      0.805972032005 
      0.860233284182 
      0.830737560566 
      0.805917135120 
      0.860248971810 
      0.830724034324 
      0.831377321811 
      0.716367116011 
      0.525952930738 
      0.831407211151 
      0.716472255554 
      0.525680743993 
      0.831339860065 
      0.716567296132 
      0.525918576924 
      0.527498185629 
      0.280055798457 
     -0.001596641134 
      0.527797933665 
      0.280037257794 
     -0.001717502542 
      0.527452048718 
      0.279776210344 
     -0.000827590340 
SCALARS  HV  double
LOOKUP_TABLE default
      0.000258659244 
     -0.000015739409 
      0.000073791898 
     -0.000258165933 
      0.000160455156 
     -0.000194601488 
     -0.000840111507 
      0.000070589622 
      0.000031796657 
     -0.000012084414 
      0.000001872728 
      0.000012817896 
     -0.000002815271 
      0.000003050341 
      0.000006560522 
      0.000052682223 
     -0.000025825772 
      0.000054460351 
     -0.000000273354 
     -0.000000824077 
      0.000003727387 
      0.000005930566 
      0.000011917625 
      0.000011546027 
      0.000042636233 
      0.000004326641 
      0.000016691768 
      0.000001987807 
     -0.000000176824 
      0.000001170112 
      0.000003356440 
      0.000023759261 
      0.000021831883 
      0.000008887689 
      0.000031619960 
      0.000041587220 
      0.000002471664 
      0.000000394351 
     -0.000001828622 
      0.000024694292 
     -0.000015173186 
     -0.000013075324 
      0.000050689703 
     -0.000007976459 
     -0.000020898076 
     -0.000003051309 
     -0.000001045346 
      0.000000867622 
     -0.000012281990 
      0.000010177954 
      0.000000675777 
     -0.000021419193 
      0.000006021742 
     -0.000000329160 
      0.000001388687 
      0.000000203508 
     -0.000000143232 
     -0.000002516499 
     -0.000007090504 
      0.000002662253 
     -0.000003524971 
     -0.000007840685 
      0.000002461894 
     -0.000000545164 
      0.000000001875 
      0.000000797296 
      0.000005047304 
      0.000000209895 
      0.000001683013 
      0.000005902424 
      0.000000099374 
      0.000004494032 
      0.000000994622 
     -0.000000605137 
     -0.000000490982 
      0.000001169098 
      0.000002571695 
     -0.000017447611 
      0.000003033042 
      0.000002780725 
     -0.000026725537 
      0.000000120551 
      0.000002336077 
     -0.000002191597 
     -0.000016175583 
     -0.000004313903 
      0.000028824239 
     -0.000023114933 
     -0.000008665992 
      0.000033467412 
     -0.000003416581 
     -0.000001262658 