# vtk DataFile Version 2.0
NDG-FEM NonhydrostaticStandingWave2d Simulation
ASCII
DATASET UNSTRUCTURED_GRID

POINTS 160 double
0.00000000000000000000  0.00000000000000000000  0.00000000000000000000
1.00000000000000000000  0.00000000000000000000  0.00000000000000000000
0.00000000000000000000  1.00000000000000000000  0.00000000000000000000
1.00000000000000000000  1.00000000000000000000  0.00000000000000000000
1.00000000000000000000  0.00000000000000000000  0.00000000000000000000
2.00000000000000000000  0.00000000000000000000  0.00000000000000000000
1.00000000000000000000  1.00000000000000000000  0.00000000000000000000
2.00000000000000000000  1.00000000000000000000  0.00000000000000000000
2.00000000000000000000  0.00000000000000000000  0.00000000000000000000
3.00000000000000000000  0.00000000000000000000  0.00000000000000000000
2.00000000000000000000  1.00000000000000000000  0.00000000000000000000
3.00000000000000000000  1.00000000000000000000  0.00000000000000000000
3.00000000000000000000  0.00000000000000000000  0.00000000000000000000
4.00000000000000000000  0.00000000000000000000  0.00000000000000000000
3.00000000000000000000  1.00000000000000000000  0.00000000000000000000
4.00000000000000000000  1.00000000000000000000  0.00000000000000000000
4.00000000000000000000  0.00000000000000000000  0.00000000000000000000
5.00000000000000000000  0.00000000000000000000  0.00000000000000000000
4.00000000000000000000  1.00000000000000000000  0.00000000000000000000
5.00000000000000000000  1.00000000000000000000  0.00000000000000000000
5.00000000000000000000  0.00000000000000000000  0.00000000000000000000
6.00000000000000000000  0.00000000000000000000  0.00000000000000000000
5.00000000000000000000  1.00000000000000000000  0.00000000000000000000
6.00000000000000000000  1.00000000000000000000  0.00000000000000000000
6.00000000000000000000  0.00000000000000000000  0.00000000000000000000
7.00000000000000000000  0.00000000000000000000  0.00000000000000000000
6.00000000000000000000  1.00000000000000000000  0.00000000000000000000
7.00000000000000000000  1.00000000000000000000  0.00000000000000000000
7.00000000000000000000  0.00000000000000000000  0.00000000000000000000
8.00000000000000000000  0.00000000000000000000  0.00000000000000000000
7.00000000000000000000  1.00000000000000000000  0.00000000000000000000
8.00000000000000000000  1.00000000000000000000  0.00000000000000000000
8.00000000000000000000  0.00000000000000000000  0.00000000000000000000
9.00000000000000000000  0.00000000000000000000  0.00000000000000000000
8.00000000000000000000  1.00000000000000000000  0.00000000000000000000
9.00000000000000000000  1.00000000000000000000  0.00000000000000000000
9.00000000000000000000  0.00000000000000000000  0.00000000000000000000
10.00000000000000000000  0.00000000000000000000  0.00000000000000000000
9.00000000000000000000  1.00000000000000000000  0.00000000000000000000
10.00000000000000000000  1.00000000000000000000  0.00000000000000000000
10.00000000000000000000  0.00000000000000000000  0.00000000000000000000
11.00000000000000000000  0.00000000000000000000  0.00000000000000000000
10.00000000000000000000  1.00000000000000000000  0.00000000000000000000
11.00000000000000000000  1.00000000000000000000  0.00000000000000000000
11.00000000000000000000  0.00000000000000000000  0.00000000000000000000
12.00000000000000000000  0.00000000000000000000  0.00000000000000000000
11.00000000000000000000  1.00000000000000000000  0.00000000000000000000
12.00000000000000000000  1.00000000000000000000  0.00000000000000000000
12.00000000000000000000  0.00000000000000000000  0.00000000000000000000
13.00000000000000000000  0.00000000000000000000  0.00000000000000000000
12.00000000000000000000  1.00000000000000000000  0.00000000000000000000
13.00000000000000000000  1.00000000000000000000  0.00000000000000000000
13.00000000000000000000  0.00000000000000000000  0.00000000000000000000
14.00000000000000000000  0.00000000000000000000  0.00000000000000000000
13.00000000000000000000  1.00000000000000000000  0.00000000000000000000
14.00000000000000000000  1.00000000000000000000  0.00000000000000000000
14.00000000000000000000  0.00000000000000000000  0.00000000000000000000
15.00000000000000000000  0.00000000000000000000  0.00000000000000000000
14.00000000000000000000  1.00000000000000000000  0.00000000000000000000
15.00000000000000000000  1.00000000000000000000  0.00000000000000000000
15.00000000000000000000  0.00000000000000000000  0.00000000000000000000
16.00000000000000000000  0.00000000000000000000  0.00000000000000000000
15.00000000000000000000  1.00000000000000000000  0.00000000000000000000
16.00000000000000000000  1.00000000000000000000  0.00000000000000000000
16.00000000000000000000  0.00000000000000000000  0.00000000000000000000
17.00000000000000000000  0.00000000000000000000  0.00000000000000000000
16.00000000000000000000  1.00000000000000000000  0.00000000000000000000
17.00000000000000000000  1.00000000000000000000  0.00000000000000000000
17.00000000000000000000  0.00000000000000000000  0.00000000000000000000
18.00000000000000000000  0.00000000000000000000  0.00000000000000000000
17.00000000000000000000  1.00000000000000000000  0.00000000000000000000
18.00000000000000000000  1.00000000000000000000  0.00000000000000000000
18.00000000000000000000  0.00000000000000000000  0.00000000000000000000
19.00000000000000000000  0.00000000000000000000  0.00000000000000000000
18.00000000000000000000  1.00000000000000000000  0.00000000000000000000
19.00000000000000000000  1.00000000000000000000  0.00000000000000000000
19.00000000000000000000  0.00000000000000000000  0.00000000000000000000
20.00000000000000000000  0.00000000000000000000  0.00000000000000000000
19.00000000000000000000  1.00000000000000000000  0.00000000000000000000
20.00000000000000000000  1.00000000000000000000  0.00000000000000000000
0.00000000000000000000  1.00000000000000000000  0.00000000000000000000
1.00000000000000000000  1.00000000000000000000  0.00000000000000000000
0.00000000000000000000  2.00000000000000000000  0.00000000000000000000
1.00000000000000000000  2.00000000000000000000  0.00000000000000000000
1.00000000000000000000  1.00000000000000000000  0.00000000000000000000
2.00000000000000000000  1.00000000000000000000  0.00000000000000000000
1.00000000000000000000  2.00000000000000000000  0.00000000000000000000
2.00000000000000000000  2.00000000000000000000  0.00000000000000000000
2.00000000000000000000  1.00000000000000000000  0.00000000000000000000
3.00000000000000000000  1.00000000000000000000  0.00000000000000000000
2.00000000000000000000  2.00000000000000000000  0.00000000000000000000
3.00000000000000000000  2.00000000000000000000  0.00000000000000000000
3.00000000000000000000  1.00000000000000000000  0.00000000000000000000
4.00000000000000000000  1.00000000000000000000  0.00000000000000000000
3.00000000000000000000  2.00000000000000000000  0.00000000000000000000
4.00000000000000000000  2.00000000000000000000  0.00000000000000000000
4.00000000000000000000  1.00000000000000000000  0.00000000000000000000
5.00000000000000000000  1.00000000000000000000  0.00000000000000000000
4.00000000000000000000  2.00000000000000000000  0.00000000000000000000
5.00000000000000000000  2.00000000000000000000  0.00000000000000000000
5.00000000000000000000  1.00000000000000000000  0.00000000000000000000
6.00000000000000000000  1.00000000000000000000  0.00000000000000000000
5.00000000000000000000  2.00000000000000000000  0.00000000000000000000
6.00000000000000000000  2.00000000000000000000  0.00000000000000000000
6.00000000000000000000  1.00000000000000000000  0.00000000000000000000
7.00000000000000000000  1.00000000000000000000  0.00000000000000000000
6.00000000000000000000  2.00000000000000000000  0.00000000000000000000
7.00000000000000000000  2.00000000000000000000  0.00000000000000000000
7.00000000000000000000  1.00000000000000000000  0.00000000000000000000
8.00000000000000000000  1.00000000000000000000  0.00000000000000000000
7.00000000000000000000  2.00000000000000000000  0.00000000000000000000
8.00000000000000000000  2.00000000000000000000  0.00000000000000000000
8.00000000000000000000  1.00000000000000000000  0.00000000000000000000
9.00000000000000000000  1.00000000000000000000  0.00000000000000000000
8.00000000000000000000  2.00000000000000000000  0.00000000000000000000
9.00000000000000000000  2.00000000000000000000  0.00000000000000000000
9.00000000000000000000  1.00000000000000000000  0.00000000000000000000
10.00000000000000000000  1.00000000000000000000  0.00000000000000000000
9.00000000000000000000  2.00000000000000000000  0.00000000000000000000
10.00000000000000000000  2.00000000000000000000  0.00000000000000000000
10.00000000000000000000  1.00000000000000000000  0.00000000000000000000
11.00000000000000000000  1.00000000000000000000  0.00000000000000000000
10.00000000000000000000  2.00000000000000000000  0.00000000000000000000
11.00000000000000000000  2.00000000000000000000  0.00000000000000000000
11.00000000000000000000  1.00000000000000000000  0.00000000000000000000
12.00000000000000000000  1.00000000000000000000  0.00000000000000000000
11.00000000000000000000  2.00000000000000000000  0.00000000000000000000
12.00000000000000000000  2.00000000000000000000  0.00000000000000000000
12.00000000000000000000  1.00000000000000000000  0.00000000000000000000
13.00000000000000000000  1.00000000000000000000  0.00000000000000000000
12.00000000000000000000  2.00000000000000000000  0.00000000000000000000
13.00000000000000000000  2.00000000000000000000  0.00000000000000000000
13.00000000000000000000  1.00000000000000000000  0.00000000000000000000
14.00000000000000000000  1.00000000000000000000  0.00000000000000000000
13.00000000000000000000  2.00000000000000000000  0.00000000000000000000
14.00000000000000000000  2.00000000000000000000  0.00000000000000000000
14.00000000000000000000  1.00000000000000000000  0.00000000000000000000
15.00000000000000000000  1.00000000000000000000  0.00000000000000000000
14.00000000000000000000  2.00000000000000000000  0.00000000000000000000
15.00000000000000000000  2.00000000000000000000  0.00000000000000000000
15.00000000000000000000  1.00000000000000000000  0.00000000000000000000
16.00000000000000000000  1.00000000000000000000  0.00000000000000000000
15.00000000000000000000  2.00000000000000000000  0.00000000000000000000
16.00000000000000000000  2.00000000000000000000  0.00000000000000000000
16.00000000000000000000  1.00000000000000000000  0.00000000000000000000
17.00000000000000000000  1.00000000000000000000  0.00000000000000000000
16.00000000000000000000  2.00000000000000000000  0.00000000000000000000
17.00000000000000000000  2.00000000000000000000  0.00000000000000000000
17.00000000000000000000  1.00000000000000000000  0.00000000000000000000
18.00000000000000000000  1.00000000000000000000  0.00000000000000000000
17.00000000000000000000  2.00000000000000000000  0.00000000000000000000
18.00000000000000000000  2.00000000000000000000  0.00000000000000000000
18.00000000000000000000  1.00000000000000000000  0.00000000000000000000
19.00000000000000000000  1.00000000000000000000  0.00000000000000000000
18.00000000000000000000  2.00000000000000000000  0.00000000000000000000
19.00000000000000000000  2.00000000000000000000  0.00000000000000000000
19.00000000000000000000  1.00000000000000000000  0.00000000000000000000
20.00000000000000000000  1.00000000000000000000  0.00000000000000000000
19.00000000000000000000  2.00000000000000000000  0.00000000000000000000
20.00000000000000000000  2.00000000000000000000  0.00000000000000000000

CELLS 40 200
4 0 1 3 2 
4 4 5 7 6 
4 8 9 11 10 
4 12 13 15 14 
4 16 17 19 18 
4 20 21 23 22 
4 24 25 27 26 
4 28 29 31 30 
4 32 33 35 34 
4 36 37 39 38 
4 40 41 43 42 
4 44 45 47 46 
4 48 49 51 50 
4 52 53 55 54 
4 56 57 59 58 
4 60 61 63 62 
4 64 65 67 66 
4 68 69 71 70 
4 72 73 75 74 
4 76 77 79 78 
4 80 81 83 82 
4 84 85 87 86 
4 88 89 91 90 
4 92 93 95 94 
4 96 97 99 98 
4 100 101 103 102 
4 104 105 107 106 
4 108 109 111 110 
4 112 113 115 114 
4 116 117 119 118 
4 120 121 123 122 
4 124 125 127 126 
4 128 129 131 130 
4 132 133 135 134 
4 136 137 139 138 
4 140 141 143 142 
4 144 145 147 146 
4 148 149 151 150 
4 152 153 155 154 
4 156 157 159 158 

CELL_TYPES 40
9 9 9 9 9 9 9 9 9 9 9 9 
9 9 9 9 9 9 9 9 9 9 9 9 
9 9 9 9 9 9 9 9 9 9 9 9 
9 9 9 9 

POINT_DATA 160
SCALARS  H  double
LOOKUP_TABLE default
      7.603623874996 
      7.603868070147 
      7.603623874996 
      7.603868070147 
      7.603668070718 
      7.605145131952 
      7.603668070718 
      7.605145131952 
      7.604505992705 
      7.606944365248 
      7.604505992705 
      7.606944365248 
      7.606118666406 
      7.609303668575 
      7.606118666406 
      7.609303668575 
      7.608335240504 
      7.612039787049 
      7.608335240504 
      7.612039787049 
      7.611034035315 
      7.614899019112 
      7.611034035315 
      7.614899019112 
      7.613951923953 
      7.617573525030 
      7.613951923953 
      7.617573525030 
      7.616774710682 
      7.619739405652 
      7.616774710682 
      7.619739405652 
      7.619159722461 
      7.621098379613 
      7.619159722461 
      7.621098379613 
      7.620772335431 
      7.621444074451 
      7.620772335431 
      7.621444074451 
      7.621444074451 
      7.620772335431 
      7.621444074451 
      7.620772335431 
      7.621098379613 
      7.619159722461 
      7.621098379613 
      7.619159722461 
      7.619739405652 
      7.616774710682 
      7.619739405652 
      7.616774710682 
      7.617573525030 
      7.613951923953 
      7.617573525030 
      7.613951923953 
      7.614899019112 
      7.611034035315 
      7.614899019112 
      7.611034035315 
      7.612039787049 
      7.608335240504 
      7.612039787049 
      7.608335240504 
      7.609303668575 
      7.606118666406 
      7.609303668575 
      7.606118666406 
      7.606944365248 
      7.604505992705 
      7.606944365248 
      7.604505992705 
      7.605145131952 
      7.603668070718 
      7.605145131952 
      7.603668070718 
      7.603868070147 
      7.603623874996 
      7.603868070147 
      7.603623874996 
      7.603623874996 
      7.603868070147 
      7.603623874996 
      7.603868070147 
      7.603668070718 
      7.605145131952 
      7.603668070718 
      7.605145131952 
      7.604505992705 
      7.606944365248 
      7.604505992705 
      7.606944365248 
      7.606118666406 
      7.609303668575 
      7.606118666406 
      7.609303668575 
      7.608335240504 
      7.612039787049 
      7.608335240504 
      7.612039787049 
      7.611034035315 
      7.614899019112 
      7.611034035315 
      7.614899019112 
      7.613951923953 
      7.617573525030 
      7.613951923953 
      7.617573525030 
      7.616774710682 
      7.619739405652 
      7.616774710682 
      7.619739405652 
      7.619159722461 
      7.621098379613 
      7.619159722461 
      7.621098379613 
      7.620772335431 
      7.621444074451 
      7.620772335431 
      7.621444074451 
      7.621444074451 
      7.620772335431 
      7.621444074451 
      7.620772335431 
      7.621098379613 
      7.619159722461 
      7.621098379613 
      7.619159722461 
      7.619739405652 
      7.616774710682 
      7.619739405652 
      7.616774710682 
      7.617573525030 
      7.613951923953 
      7.617573525030 
      7.613951923953 
      7.614899019112 
      7.611034035315 
      7.614899019112 
      7.611034035315 
      7.612039787049 
      7.608335240504 
      7.612039787049 
      7.608335240504 
      7.609303668575 
      7.606118666406 
      7.609303668575 
      7.606118666406 
      7.606944365248 
      7.604505992705 
      7.606944365248 
      7.604505992705 
      7.605145131952 
      7.603668070718 
      7.605145131952 
      7.603668070718 
      7.603868070147 
      7.603623874996 
      7.603868070147 
      7.603623874996 
SCALARS  HU  double
LOOKUP_TABLE default
     -0.000533860101 
     -0.166756900560 
     -0.000533860101 
     -0.166756900560 
     -0.170645887153 
     -0.324564963959 
     -0.170645887153 
     -0.324564963959 
     -0.326218029633 
     -0.446727842192 
     -0.326218029633 
     -0.446727842192 
     -0.448196049244 
     -0.524948736748 
     -0.448196049244 
     -0.524948736748 
     -0.525577103400 
     -0.551095128649 
     -0.525577103400 
     -0.551095128649 
     -0.550952938147 
     -0.523243924609 
     -0.550952938147 
     -0.523243924609 
     -0.522341016548 
     -0.444506758076 
     -0.522341016548 
     -0.444506758076 
     -0.442953335512 
     -0.322859393576 
     -0.442953335512 
     -0.322859393576 
     -0.320843860540 
     -0.170170282520 
     -0.320843860540 
     -0.170170282520 
     -0.168043326118 
     -0.001036578271 
     -0.168043326118 
     -0.001036578271 
      0.001036578271 
      0.168043326118 
      0.001036578271 
      0.168043326118 
      0.170170282520 
      0.320843860540 
      0.170170282520 
      0.320843860540 
      0.322859393576 
      0.442953335512 
      0.322859393576 
      0.442953335512 
      0.444506758076 
      0.522341016548 
      0.444506758076 
      0.522341016548 
      0.523243924609 
      0.550952938147 
      0.523243924609 
      0.550952938147 
      0.551095128649 
      0.525577103400 
      0.551095128649 
      0.525577103400 
      0.524948736748 
      0.448196049244 
      0.524948736748 
      0.448196049244 
      0.446727842192 
      0.326218029633 
      0.446727842192 
      0.326218029633 
      0.324564963959 
      0.170645887153 
      0.324564963959 
      0.170645887153 
      0.166756900560 
      0.000533860101 
      0.166756900560 
      0.000533860101 
     -0.000533860101 
     -0.166756900560 
     -0.000533860101 
     -0.166756900560 
     -0.170645887153 
     -0.324564963959 
     -0.170645887153 
     -0.324564963959 
     -0.326218029633 
     -0.446727842192 
     -0.326218029633 
     -0.446727842192 
     -0.448196049244 
     -0.524948736748 
     -0.448196049244 
     -0.524948736748 
     -0.525577103400 
     -0.551095128649 
     -0.525577103400 
     -0.551095128649 
     -0.550952938147 
     -0.523243924609 
     -0.550952938147 
     -0.523243924609 
     -0.522341016548 
     -0.444506758076 
     -0.522341016548 
     -0.444506758076 
     -0.442953335512 
     -0.322859393576 
     -0.442953335512 
     -0.322859393576 
     -0.320843860540 
     -0.170170282520 
     -0.320843860540 
     -0.170170282520 
     -0.168043326118 
     -0.001036578271 
     -0.168043326118 
     -0.001036578271 
      0.001036578271 
      0.168043326118 
      0.001036578271 
      0.168043326118 
      0.170170282520 
      0.320843860540 
      0.170170282520 
      0.320843860540 
      0.322859393576 
      0.442953335512 
      0.322859393576 
      0.442953335512 
      0.444506758076 
      0.522341016548 
      0.444506758076 
      0.522341016548 
      0.523243924609 
      0.550952938147 
      0.523243924609 
      0.550952938147 
      0.551095128649 
      0.525577103400 
      0.551095128649 
      0.525577103400 
      0.524948736748 
      0.448196049244 
      0.524948736748 
      0.448196049244 
      0.446727842192 
      0.326218029633 
      0.446727842192 
      0.326218029633 
      0.324564963959 
      0.170645887153 
      0.324564963959 
      0.170645887153 
      0.166756900560 
      0.000533860101 
      0.166756900560 
      0.000533860101 
SCALARS  HV  double
LOOKUP_TABLE default
     -0.000000000000 
      0.000000000000 
      0.000000000000 
      0.000000000000 
      0.000000000000 
      0.000000000000 
      0.000000000000 
      0.000000000000 
     -0.000000000000 
      0.000000000000 
     -0.000000000000 
     -0.000000000000 
     -0.000000000000 
     -0.000000000000 
     -0.000000000000 
      0.000000000000 
      0.000000000000 
      0.000000000000 
      0.000000000000 
      0.000000000000 
      0.000000000000 
     -0.000000000000 
      0.000000000000 
     -0.000000000000 
     -0.000000000000 
     -0.000000000000 
     -0.000000000000 
     -0.000000000000 
     -0.000000000000 
      0.000000000000 
     -0.000000000000 
      0.000000000000 
      0.000000000000 
     -0.000000000000 
      0.000000000000 
     -0.000000000000 
     -0.000000000000 
     -0.000000000000 
      0.000000000000 
     -0.000000000000 
     -0.000000000000 
      0.000000000000 
     -0.000000000000 
     -0.000000000000 
      0.000000000000 
     -0.000000000000 
     -0.000000000000 
     -0.000000000000 
      0.000000000000 
      0.000000000000 
     -0.000000000000 
     -0.000000000000 
      0.000000000000 
      0.000000000000 
     -0.000000000000 
     -0.000000000000 
      0.000000000000 
     -0.000000000000 
     -0.000000000000 
     -0.000000000000 
     -0.000000000000 
     -0.000000000000 
     -0.000000000000 
     -0.000000000000 
     -0.000000000000 
     -0.000000000000 
     -0.000000000000 
     -0.000000000000 
     -0.000000000000 
     -0.000000000000 
     -0.000000000000 
      0.000000000000 
     -0.000000000000 
     -0.000000000000 
      0.000000000000 
     -0.000000000000 
      0.000000000000 
      0.000000000000 
     -0.000000000000 
      0.000000000000 
      0.000000000000 
      0.000000000000 
     -0.000000000000 
      0.000000000000 
      0.000000000000 
     -0.000000000000 
      0.000000000000 
     -0.000000000000 
     -0.000000000000 
     -0.000000000000 
     -0.000000000000 
     -0.000000000000 
     -0.000000000000 
      0.000000000000 
     -0.000000000000 
      0.000000000000 
      0.000000000000 
      0.000000000000 
      0.000000000000 
     -0.000000000000 
      0.000000000000 
      0.000000000000 
     -0.000000000000 
     -0.000000000000 
      0.000000000000 
     -0.000000000000 
     -0.000000000000 
     -0.000000000000 
     -0.000000000000 
      0.000000000000 
     -0.000000000000 
     -0.000000000000 
      0.000000000000 
     -0.000000000000 
     -0.000000000000 
      0.000000000000 
     -0.000000000000 
     -0.000000000000 
      0.000000000000 
     -0.000000000000 
     -0.000000000000 
     -0.000000000000 
     -0.000000000000 
     -0.000000000000 
     -0.000000000000 
     -0.000000000000 
     -0.000000000000 
     -0.000000000000 
     -0.000000000000 
     -0.000000000000 
      0.000000000000 
     -0.000000000000 
      0.000000000000 
      0.000000000000 
     -0.000000000000 
     -0.000000000000 
      0.000000000000 
     -0.000000000000 
      0.000000000000 
     -0.000000000000 
     -0.000000000000 
      0.000000000000 
     -0.000000000000 
     -0.000000000000 
     -0.000000000000 
     -0.000000000000 
     -0.000000000000 
     -0.000000000000 
      0.000000000000 
     -0.000000000000 
     -0.000000000000 
     -0.000000000000 
     -0.000000000000 
      0.000000000000 
     -0.000000000000 
      0.000000000000 
      0.000000000000 
      0.000000000000 
      0.000000000000 
      0.000000000000 
SCALARS  HW  double
LOOKUP_TABLE default
      0.625424871246 
      0.649162732766 
      0.625424871246 
      0.649162732766 
      0.638993711869 
      0.538276265892 
      0.638993711869 
      0.538276265892 
      0.530114170503 
      0.391361230034 
      0.530114170503 
      0.391361230034 
      0.383199695211 
      0.202466520271 
      0.383199695211 
      0.202466520271 
      0.196753137524 
     -0.003977063936 
      0.196753137524 
     -0.003977063936 
     -0.006672121198 
     -0.208490969455 
     -0.006672121198 
     -0.208490969455 
     -0.208055783388 
     -0.391006145609 
     -0.208055783388 
     -0.391006145609 
     -0.388122450294 
     -0.534277403349 
     -0.388122450294 
     -0.534277403349 
     -0.530081677572 
     -0.625897420221 
     -0.530081677572 
     -0.625897420221 
     -0.621575387500 
     -0.655687236328 
     -0.621575387500 
     -0.655687236328 
     -0.655687236328 
     -0.621575387500 
     -0.655687236328 
     -0.621575387500 
     -0.625897420221 
     -0.530081677572 
     -0.625897420221 
     -0.530081677572 
     -0.534277403349 
     -0.388122450294 
     -0.534277403349 
     -0.388122450294 
     -0.391006145609 
     -0.208055783388 
     -0.391006145609 
     -0.208055783388 
     -0.208490969455 
     -0.006672121198 
     -0.208490969455 
     -0.006672121198 
     -0.003977063936 
      0.196753137524 
     -0.003977063936 
      0.196753137524 
      0.202466520271 
      0.383199695211 
      0.202466520271 
      0.383199695211 
      0.391361230034 
      0.530114170503 
      0.391361230034 
      0.530114170503 
      0.538276265892 
      0.638993711869 
      0.538276265892 
      0.638993711869 
      0.649162732766 
      0.625424871246 
      0.649162732766 
      0.625424871246 
      0.625424871246 
      0.649162732766 
      0.625424871246 
      0.649162732766 
      0.638993711869 
      0.538276265892 
      0.638993711869 
      0.538276265892 
      0.530114170503 
      0.391361230034 
      0.530114170503 
      0.391361230034 
      0.383199695211 
      0.202466520271 
      0.383199695211 
      0.202466520271 
      0.196753137524 
     -0.003977063936 
      0.196753137524 
     -0.003977063936 
     -0.006672121198 
     -0.208490969455 
     -0.006672121198 
     -0.208490969455 
     -0.208055783388 
     -0.391006145609 
     -0.208055783388 
     -0.391006145609 
     -0.388122450294 
     -0.534277403349 
     -0.388122450294 
     -0.534277403349 
     -0.530081677572 
     -0.625897420221 
     -0.530081677572 
     -0.625897420221 
     -0.621575387500 
     -0.655687236328 
     -0.621575387500 
     -0.655687236328 
     -0.655687236328 
     -0.621575387500 
     -0.655687236328 
     -0.621575387500 
     -0.625897420221 
     -0.530081677572 
     -0.625897420221 
     -0.530081677572 
     -0.534277403349 
     -0.388122450294 
     -0.534277403349 
     -0.388122450294 
     -0.391006145609 
     -0.208055783388 
     -0.391006145609 
     -0.208055783388 
     -0.208490969455 
     -0.006672121198 
     -0.208490969455 
     -0.006672121198 
     -0.003977063936 
      0.196753137524 
     -0.003977063936 
      0.196753137524 
      0.202466520271 
      0.383199695211 
      0.202466520271 
      0.383199695211 
      0.391361230034 
      0.530114170503 
      0.391361230034 
      0.530114170503 
      0.538276265892 
      0.638993711869 
      0.538276265892 
      0.638993711869 
      0.649162732766 
      0.625424871246 
      0.649162732766 
      0.625424871246 
SCALARS  q  double
LOOKUP_TABLE default
      0.054997386698 
      0.054332545460 
      0.054997386698 
      0.054332545460 
      0.052526439130 
      0.049677363927 
      0.052526439130 
      0.049677363927 
      0.047299954192 
      0.040077015112 
      0.047299954192 
      0.040077015112 
      0.037209911987 
      0.027273787879 
      0.037209911987 
      0.027273787879 
      0.024204209577 
      0.011706472836 
      0.024204209577 
      0.011706472836 
      0.008747754551 
     -0.005007944226 
      0.008747754551 
     -0.005007944226 
     -0.007564283319 
     -0.021078057952 
     -0.007564283319 
     -0.021078057952 
     -0.022979678305 
     -0.034559394696 
     -0.022979678305 
     -0.034559394696 
     -0.035629678849 
     -0.043560673703 
     -0.035629678849 
     -0.043560673703 
     -0.043758274344 
     -0.046599857662 
     -0.043758274344 
     -0.046599857662 
     -0.046599857662 
     -0.043758274344 
     -0.046599857662 
     -0.043758274344 
     -0.043560673703 
     -0.035629678848 
     -0.043560673703 
     -0.035629678849 
     -0.034559394696 
     -0.022979678305 
     -0.034559394696 
     -0.022979678305 
     -0.021078057952 
     -0.007564283319 
     -0.021078057952 
     -0.007564283319 
     -0.005007944226 
      0.008747754551 
     -0.005007944226 
      0.008747754551 
      0.011706472836 
      0.024204209577 
      0.011706472836 
      0.024204209577 
      0.027273787879 
      0.037209911987 
      0.027273787879 
      0.037209911987 
      0.040077015112 
      0.047299954192 
      0.040077015112 
      0.047299954192 
      0.049677363927 
      0.052526439130 
      0.049677363927 
      0.052526439130 
      0.054332545460 
      0.054997386698 
      0.054332545460 
      0.054997386698 
      0.054997386698 
      0.054332545460 
      0.054997386698 
      0.054332545460 
      0.052526439130 
      0.049677363927 
      0.052526439130 
      0.049677363927 
      0.047299954192 
      0.040077015112 
      0.047299954192 
      0.040077015112 
      0.037209911987 
      0.027273787879 
      0.037209911987 
      0.027273787879 
      0.024204209577 
      0.011706472836 
      0.024204209577 
      0.011706472836 
      0.008747754551 
     -0.005007944226 
      0.008747754551 
     -0.005007944226 
     -0.007564283319 
     -0.021078057952 
     -0.007564283319 
     -0.021078057952 
     -0.022979678305 
     -0.034559394696 
     -0.022979678305 
     -0.034559394696 
     -0.035629678849 
     -0.043560673703 
     -0.035629678849 
     -0.043560673703 
     -0.043758274344 
     -0.046599857662 
     -0.043758274344 
     -0.046599857662 
     -0.046599857662 
     -0.043758274344 
     -0.046599857662 
     -0.043758274344 
     -0.043560673703 
     -0.035629678849 
     -0.043560673703 
     -0.035629678849 
     -0.034559394696 
     -0.022979678305 
     -0.034559394696 
     -0.022979678305 
     -0.021078057952 
     -0.007564283319 
     -0.021078057952 
     -0.007564283319 
     -0.005007944226 
      0.008747754551 
     -0.005007944226 
      0.008747754551 
      0.011706472836 
      0.024204209577 
      0.011706472836 
      0.024204209577 
      0.027273787879 
      0.037209911987 
      0.027273787879 
      0.037209911987 
      0.040077015112 
      0.047299954192 
      0.040077015112 
      0.047299954192 
      0.049677363927 