# vtk DataFile Version 2.0
NDG-FEM NonhydrostaticStandingWave2d Simulation
ASCII
DATASET UNSTRUCTURED_GRID

POINTS 405 double
0.00000000000000000000  0.00000000000000000000  0.00000000000000000000
1.00000000000000000000  0.00000000000000000000  0.00000000000000000000
2.00000000000000000000  0.00000000000000000000  0.00000000000000000000
0.00000000000000000000  1.00000000000000000000  0.00000000000000000000
1.00000000000000000000  1.00000000000000000000  0.00000000000000000000
2.00000000000000000000  1.00000000000000000000  0.00000000000000000000
0.00000000000000000000  2.00000000000000000000  0.00000000000000000000
1.00000000000000000000  2.00000000000000000000  0.00000000000000000000
2.00000000000000000000  2.00000000000000000000  0.00000000000000000000
2.00000000000000000000  0.00000000000000000000  0.00000000000000000000
3.00000000000000000000  0.00000000000000000000  0.00000000000000000000
4.00000000000000000000  0.00000000000000000000  0.00000000000000000000
2.00000000000000000000  1.00000000000000000000  0.00000000000000000000
3.00000000000000000000  1.00000000000000000000  0.00000000000000000000
4.00000000000000000000  1.00000000000000000000  0.00000000000000000000
2.00000000000000000000  2.00000000000000000000  0.00000000000000000000
3.00000000000000000000  2.00000000000000000000  0.00000000000000000000
4.00000000000000000000  2.00000000000000000000  0.00000000000000000000
4.00000000000000000000  0.00000000000000000000  0.00000000000000000000
5.00000000000000000000  0.00000000000000000000  0.00000000000000000000
6.00000000000000000000  0.00000000000000000000  0.00000000000000000000
4.00000000000000000000  1.00000000000000000000  0.00000000000000000000
5.00000000000000000000  1.00000000000000000000  0.00000000000000000000
6.00000000000000000000  1.00000000000000000000  0.00000000000000000000
4.00000000000000000000  2.00000000000000000000  0.00000000000000000000
5.00000000000000000000  2.00000000000000000000  0.00000000000000000000
6.00000000000000000000  2.00000000000000000000  0.00000000000000000000
6.00000000000000000000  0.00000000000000000000  0.00000000000000000000
7.00000000000000000000  0.00000000000000000000  0.00000000000000000000
8.00000000000000000000  0.00000000000000000000  0.00000000000000000000
6.00000000000000000000  1.00000000000000000000  0.00000000000000000000
7.00000000000000000000  1.00000000000000000000  0.00000000000000000000
8.00000000000000000000  1.00000000000000000000  0.00000000000000000000
6.00000000000000000000  2.00000000000000000000  0.00000000000000000000
7.00000000000000000000  2.00000000000000000000  0.00000000000000000000
8.00000000000000000000  2.00000000000000000000  0.00000000000000000000
8.00000000000000000000  0.00000000000000000000  0.00000000000000000000
9.00000000000000000000  0.00000000000000000000  0.00000000000000000000
10.00000000000000000000  0.00000000000000000000  0.00000000000000000000
8.00000000000000000000  1.00000000000000000000  0.00000000000000000000
9.00000000000000000000  1.00000000000000000000  0.00000000000000000000
10.00000000000000000000  1.00000000000000000000  0.00000000000000000000
8.00000000000000000000  2.00000000000000000000  0.00000000000000000000
9.00000000000000000000  2.00000000000000000000  0.00000000000000000000
10.00000000000000000000  2.00000000000000000000  0.00000000000000000000
10.00000000000000000000  0.00000000000000000000  0.00000000000000000000
11.00000000000000000000  0.00000000000000000000  0.00000000000000000000
12.00000000000000000000  0.00000000000000000000  0.00000000000000000000
10.00000000000000000000  1.00000000000000000000  0.00000000000000000000
11.00000000000000000000  1.00000000000000000000  0.00000000000000000000
12.00000000000000000000  1.00000000000000000000  0.00000000000000000000
10.00000000000000000000  2.00000000000000000000  0.00000000000000000000
11.00000000000000000000  2.00000000000000000000  0.00000000000000000000
12.00000000000000000000  2.00000000000000000000  0.00000000000000000000
12.00000000000000000000  0.00000000000000000000  0.00000000000000000000
13.00000000000000000000  0.00000000000000000000  0.00000000000000000000
14.00000000000000000000  0.00000000000000000000  0.00000000000000000000
12.00000000000000000000  1.00000000000000000000  0.00000000000000000000
13.00000000000000000000  1.00000000000000000000  0.00000000000000000000
14.00000000000000000000  1.00000000000000000000  0.00000000000000000000
12.00000000000000000000  2.00000000000000000000  0.00000000000000000000
13.00000000000000000000  2.00000000000000000000  0.00000000000000000000
14.00000000000000000000  2.00000000000000000000  0.00000000000000000000
14.00000000000000000000  0.00000000000000000000  0.00000000000000000000
15.00000000000000000000  0.00000000000000000000  0.00000000000000000000
16.00000000000000000000  0.00000000000000000000  0.00000000000000000000
14.00000000000000000000  1.00000000000000000000  0.00000000000000000000
15.00000000000000000000  1.00000000000000000000  0.00000000000000000000
16.00000000000000000000  1.00000000000000000000  0.00000000000000000000
14.00000000000000000000  2.00000000000000000000  0.00000000000000000000
15.00000000000000000000  2.00000000000000000000  0.00000000000000000000
16.00000000000000000000  2.00000000000000000000  0.00000000000000000000
16.00000000000000000000  0.00000000000000000000  0.00000000000000000000
17.00000000000000000000  0.00000000000000000000  0.00000000000000000000
18.00000000000000000000  0.00000000000000000000  0.00000000000000000000
16.00000000000000000000  1.00000000000000000000  0.00000000000000000000
17.00000000000000000000  1.00000000000000000000  0.00000000000000000000
18.00000000000000000000  1.00000000000000000000  0.00000000000000000000
16.00000000000000000000  2.00000000000000000000  0.00000000000000000000
17.00000000000000000000  2.00000000000000000000  0.00000000000000000000
18.00000000000000000000  2.00000000000000000000  0.00000000000000000000
18.00000000000000000000  0.00000000000000000000  0.00000000000000000000
19.00000000000000000000  0.00000000000000000000  0.00000000000000000000
20.00000000000000000000  0.00000000000000000000  0.00000000000000000000
18.00000000000000000000  1.00000000000000000000  0.00000000000000000000
19.00000000000000000000  1.00000000000000000000  0.00000000000000000000
20.00000000000000000000  1.00000000000000000000  0.00000000000000000000
18.00000000000000000000  2.00000000000000000000  0.00000000000000000000
19.00000000000000000000  2.00000000000000000000  0.00000000000000000000
20.00000000000000000000  2.00000000000000000000  0.00000000000000000000
20.00000000000000000000  0.00000000000000000000  0.00000000000000000000
21.00000000000000000000  0.00000000000000000000  0.00000000000000000000
22.00000000000000000000  0.00000000000000000000  0.00000000000000000000
20.00000000000000000000  1.00000000000000000000  0.00000000000000000000
21.00000000000000000000  1.00000000000000000000  0.00000000000000000000
22.00000000000000000000  1.00000000000000000000  0.00000000000000000000
20.00000000000000000000  2.00000000000000000000  0.00000000000000000000
21.00000000000000000000  2.00000000000000000000  0.00000000000000000000
22.00000000000000000000  2.00000000000000000000  0.00000000000000000000
22.00000000000000000000  0.00000000000000000000  0.00000000000000000000
23.00000000000000000000  0.00000000000000000000  0.00000000000000000000
24.00000000000000000000  0.00000000000000000000  0.00000000000000000000
22.00000000000000000000  1.00000000000000000000  0.00000000000000000000
23.00000000000000000000  1.00000000000000000000  0.00000000000000000000
24.00000000000000000000  1.00000000000000000000  0.00000000000000000000
22.00000000000000000000  2.00000000000000000000  0.00000000000000000000
23.00000000000000000000  2.00000000000000000000  0.00000000000000000000
24.00000000000000000000  2.00000000000000000000  0.00000000000000000000
24.00000000000000000000  0.00000000000000000000  0.00000000000000000000
25.00000000000000000000  0.00000000000000000000  0.00000000000000000000
26.00000000000000000000  0.00000000000000000000  0.00000000000000000000
24.00000000000000000000  1.00000000000000000000  0.00000000000000000000
25.00000000000000000000  1.00000000000000000000  0.00000000000000000000
26.00000000000000000000  1.00000000000000000000  0.00000000000000000000
24.00000000000000000000  2.00000000000000000000  0.00000000000000000000
25.00000000000000000000  2.00000000000000000000  0.00000000000000000000
26.00000000000000000000  2.00000000000000000000  0.00000000000000000000
26.00000000000000000000  0.00000000000000000000  0.00000000000000000000
27.00000000000000000000  0.00000000000000000000  0.00000000000000000000
28.00000000000000000000  0.00000000000000000000  0.00000000000000000000
26.00000000000000000000  1.00000000000000000000  0.00000000000000000000
27.00000000000000000000  1.00000000000000000000  0.00000000000000000000
28.00000000000000000000  1.00000000000000000000  0.00000000000000000000
26.00000000000000000000  2.00000000000000000000  0.00000000000000000000
27.00000000000000000000  2.00000000000000000000  0.00000000000000000000
28.00000000000000000000  2.00000000000000000000  0.00000000000000000000
28.00000000000000000000  0.00000000000000000000  0.00000000000000000000
29.00000000000000000000  0.00000000000000000000  0.00000000000000000000
30.00000000000000000000  0.00000000000000000000  0.00000000000000000000
28.00000000000000000000  1.00000000000000000000  0.00000000000000000000
29.00000000000000000000  1.00000000000000000000  0.00000000000000000000
30.00000000000000000000  1.00000000000000000000  0.00000000000000000000
28.00000000000000000000  2.00000000000000000000  0.00000000000000000000
29.00000000000000000000  2.00000000000000000000  0.00000000000000000000
30.00000000000000000000  2.00000000000000000000  0.00000000000000000000
0.00000000000000000000  2.00000000000000000000  0.00000000000000000000
1.00000000000000000000  2.00000000000000000000  0.00000000000000000000
[...]
POINT_DATA 405
SCALARS  H  double
LOOKUP_TABLE default
      7.690776823898 
      7.686960005619 
      7.675146503262 
      7.691079381741 
      7.686894392473 
      7.675164525806 
      7.691043339042 
      7.686910839553 
      7.675174118317 
      7.675414058337 
      7.657142839496 
      7.634834439209 
      7.675409065094 
      7.657148639719 
      7.634821189172 
      7.675445319255 
      7.657127989132 
      7.634823231808 
      7.635022270689 
      7.610603681988 
      7.586743498954 
      7.635016307727 
      7.610608426064 
      7.586741770969 
      7.635029745535 
      7.610616946412 
      7.586740031659 
      7.586918992984 
      7.565939286711 
      7.549298172605 
      7.586916366887 
      7.565937914125 
      7.549298831249 
      7.586916039098 
      7.565935218101 
      7.549300579395 
      7.549385967135 
      7.539148327342 
      7.535349909988 
      7.549387283094 
      7.539148470302 
      7.535349244872 
      7.549391385486 
      7.539148118840 
      7.535348273861 
      7.535349076429 
      7.539149662552 
      7.549380285662 
      7.535348854473 
      7.539149908202 
      7.549379959563 
      7.535348902675 
      7.539150329344 
      7.549379453817 
      7.549290351302 
      7.565921575955 
      7.586926194200 
      7.549290010068 
      7.565921659838 
      7.586926138583 
      7.549289578774 
      7.565921765871 
      7.586926099274 
      7.586755715541 
      7.610687493025 
      7.635122508596 
      7.586755607107 
      7.610687498814 
      7.635122557102 
      7.586755506020 
      7.610687492426 
      7.635122588559 
      7.634914289019 
      7.657267725592 
      7.675560198423 
      7.634914291348 
      7.657267697031 
      7.675560342758 
      7.634914300759 
      7.657267687195 
      7.675560288142 
      7.675408854202 
      7.686971652715 
      7.691297866177 
      7.675408973419 
      7.686971587775 
      7.691298117663 
      7.675408895125 
      7.686971692441 
      7.691298200206 
      7.691299956869 
      7.686974068376 
      7.675382521796 
      7.691300205975 
      7.686973856446 
      7.675383493560 
      7.691299938234 
      7.686973666590 
      7.675385891813 
      7.675537955530 
      7.657264328237 
      7.634939261346 
      7.675539028713 
      7.657263714031 
      7.634939530249 
      7.675540970053 
      7.657261643403 
      7.634939546746 
      7.635140479096 
      7.610746564305 
      7.586863494913 
      7.635142349606 
      7.610747007347 
      7.586857105229 
      7.635146133914 
      7.610748117076 
      7.586843794956 
      7.587021700697 
      7.566024456691 
      7.549454123599 
      7.587017688728 
      7.566036446380 
      7.549440082735 
      7.587015112191 
      7.566052613373 
      7.549374548401 
      7.549636963940 
      7.539229448770 
      7.535427082982 
      7.549638712050 
      7.539209950607 
      7.535584071965 
      7.549555162120 
      7.539228234720 
      7.535432582884 
      7.691062932377 
      7.686909896530 
      7.675196621618 
      7.691095999935 
      7.686887872628 
      7.675189432497 
      7.691034664112 
      7.686879912080 
      7.675106910084 
      7.675441173918 
      7.657126287768 
      7.634826194690 
      7.675447255741 
      7.657128069038 
      7.634808260575 
      7.675451034165 
      7.657143965946 
      7.634786985517 
      7.635031616275 
      7.610615406280 
      7.586740851868 
      7.635019593034 
      7.610627050228 
      7.586737862597 
      7.635002344122 
      7.610636027295 
      7.586731941752 
      7.586916906264 
      7.565935378182 
      7.549300255073 
      7.586910793180 
      7.565932398646 
      7.549302498528 
      7.586899842662 
      7.565932468195 
      7.549304692006 
      7.549391097030 
      7.539148227718 
      7.535348266982 
      7.549394243641 
      7.539148142731 
      7.535347159527 
      7.549394886405 
      7.539147465023 
      7.535347658603 
      7.535348829801 
      7.539150315348 
      7.549379497838 
      7.535348343451 
      7.539150825288 
      7.549379036980 
      7.535348728885 
      7.539150819170 
      7.549379057328 
      7.549289589487 
      7.565921749643 
      7.586926114798 
      7.549289014207 
      7.565921823664 
      7.586926133008 
      7.549288982381 
      7.565921825070 
      7.586926155388 
      7.586755521995 
      7.610687489424 
      7.635122584068 
      7.586755458002 
      7.610687469014 
      7.635122480126 
      7.586755471334 
      7.610687460692 
      7.635122417978 
      7.634914300595 
      7.657267692155 
      7.675560265244 
      7.634914240890 
      7.657267825898 
      7.675559711781 
      7.634914226957 
      7.657267893569 
      7.675559533035 
      7.675408874568 
      7.686971717535 
      7.691298113232 
      7.675408217535 
      7.686972235831 
      7.691298215027 
      7.675408007152 
      7.686972351216 
      7.691299108588 
      7.691299818330 
      7.686973768556 
      7.675385780033 
      7.691298735985 
      7.686973270034 
      7.675390371630 
      7.691299222618 
      7.686972009203 
      7.675393028437 
      7.675540618267 
      7.657261665138 
      7.634940391319 
      7.675543287878 
      7.657259339526 
      7.634938782817 
      7.675546921707 
      7.657259053816 
      7.634929536012 
      7.635146221456 
      7.610747514760 
      7.586846288884 
      7.635144613434 
      7.610753749812 
      7.586855242265 
      7.635140245376 
      7.610761191225 
      7.586857102538 
      7.587016033036 
      7.566051294551 
      7.549383415137 
      7.587017044038 
      7.566037172158 
      7.549418684918 
      7.587018308910 
      7.566029039478 
      7.549393123053 
      7.549583858928 
      7.539219217477 
      7.535516012002 
      7.549573898676 
      7.539197847369 
      7.535581268823 
      7.549613199038 
      7.539215851596 
      7.535598513215 
      7.691179632190 
      7.686862039161 
      7.675167149472 
      7.691129722896 
      7.686877607274 
      7.675149486014 
      7.691236908176 
      7.686820839474 
      7.675180035703 
      7.675447462653 
      7.657140407920 
      7.634791963846 
      7.675449970944 
      7.657148172786 
      7.634794443918 
      7.675469647012 
      7.657166525217 
      7.634772284972 
      7.635005465635 
      7.610635855668 
      7.586732454521 
      7.635005769698 
      7.610634957977 
      7.586730130825 
      7.634993780512 
      7.610637706174 
      7.586726074542 
      7.586899939331 
      7.565932340475 
      7.549304975723 
      7.586895366178 
      7.565933006002 
      7.549306113174 
      7.586892314583 
      7.565933567923 
      7.549306021404 
      7.549395144411 
      7.539147378978 
      7.535347722935 
      7.549395441041 
      7.539146696436 
      7.535348263688 
      7.549395216615 
      7.539146566617 
      7.535348319475 
      7.535348818271 
      7.539150809452 
      7.549379063572 
      7.535349575019 
      7.539150736822 
      7.549378966705 
      7.535349675641 
      7.539150739164 
      7.549378941421 
      7.549288995627 
      7.565921824309 
      7.586926155431 
      7.549289060916 
      7.565921866529 
      7.586926062098 
      7.549289053947 
      7.565921887042 
      7.586926038764 
      7.586755472060 
      7.610687459852 
      7.635122431579 
      7.586755431641 
      7.610687491198 
      7.635122260047 
      7.586755417954 
      7.610687496585 
      7.635122203901 
      7.634914229409 
      7.657267882845 
      7.675559569556 
      7.634914112391 
      7.657268026868 
      7.675559210984 
      7.634914080630 
      7.657268071682 
      7.675559013527 
      7.675408046948 
      7.686972325883 
      7.691299147134 
      7.675407541652 
      7.686972592924 
      7.691299763124 
      7.675407383669 
      7.686972739421 
      7.691299931222 
      7.691299294929 
      7.686971992793 
      7.675393177098 
      7.691299110287 
      7.686971152806 
      7.675395645058 
      7.691299208998 
      7.686970669876 
      7.675396544061 
      7.675547097845 
      7.657258833566 
      7.634930423184 
      7.675549466508 
      7.657258489211 
      7.634924448218 
      7.675551133201 
      7.657257940273 
      7.634919170420 
      7.635141397173 
      7.610760679894 
      7.586858982187 
      7.635137423074 
      7.610764708580 
      7.586866938660 
      7.635135856227 
      7.610769586014 
      7.586845043570 
      7.587020719415 
      7.566027189065 
      7.549391422325 
      7.587026777978 
      7.566020861284 
      7.549431718439 
      7.587000929975 
      7.566043842734 
      7.549389601564 
      7.549587670517 
      7.539226839557 
      7.535551831399 
      7.549615520480 
      7.539200940474 
      7.535479324987 
      7.549539370386 
      7.539248324978 
      7.535421840469 
SCALARS  HU  double
LOOKUP_TABLE default
      0.000260652619 
     -0.168522444391 
     -0.317238833247 
      0.000960992164 
     -0.168627029646 
     -0.317585590749 
      0.001964935134 
     -0.168512380240 
     -0.317630561884 
     -0.316779488984 
     -0.438886306898 
     -0.515252311501 
     -0.316434242115 
     -0.438899744275 
     -0.515284422244 
     -0.316270996450 
     -0.439000175117 
     -0.515304253195 
     -0.514604511110 
     -0.543864330873 
     -0.515645146090 
     -0.514616426128 
     -0.543818657634 
     -0.515655435709 
     -0.514511513853 
     -0.543758061608 
     -0.515673013740 
     -0.516697816676 
     -0.440458400385 
     -0.318418431250 
     -0.516718530855 
     -0.440465821518 
     -0.318413424511 
     -0.516726550265 
     -0.440489722947 
     -0.318400516136 
     -0.320862599664 
     -0.168509007006 
      0.001433870076 
     -0.320850590637 
     -0.168509890299 
      0.001429688611 
     -0.320817374073 
     -0.168511627533 
      0.001420518990 
     -0.001460312113 
      0.168504757119 
      0.320928566640 
     -0.001460827049 
      0.168506736506 
      0.320926194713 
     -0.001460753876 
      0.168510286159 
      0.320921862780 
      0.318499560357 
      0.440595570383 
      0.516641875720 
      0.318497443034 
      0.440596108185 
      0.516641427095 
      0.318493648767 
      0.440596992932 
      0.516640982676 
      0.515545301041 
      0.543150512636 
      0.513708930953 
      0.515544561568 
      0.543150632726 
      0.513708615239 
      0.515543758899 
      0.543150647538 
      0.513708610290 
      0.514506959571 
      0.437835773754 
      0.315200044700 
      0.514506827882 
      0.437835887549 
      0.315199227305 
      0.514506803261 
      0.437835846038 
      0.315200079704 
      0.317742881226 
      0.166800085526 
     -0.001653203250 
      0.317742635244 
      0.166800295554 
     -0.001654153158 
      0.317743700664 
      0.166799064840 
     -0.001654243312 
      0.001586019850 
     -0.166793515583 
     -0.317523705660 
      0.001585572536 
     -0.166792422911 
     -0.317528647302 
      0.001588063485 
     -0.166790651254 
     -0.317550689026 
     -0.315018986575 
     -0.437808425163 
     -0.514727101106 
     -0.315026798253 
     -0.437801419002 
     -0.514726286377 
     -0.315044564661 
     -0.437784286478 
     -0.514723459324 
     -0.513862248375 
     -0.543665294574 
     -0.516480875158 
     -0.513880380748 
     -0.543667819440 
     -0.516427330704 
     -0.513906436546 
     -0.543683650505 
     -0.516301488139 
     -0.517456915686 
     -0.441499759739 
     -0.319849330097 
     -0.517438173630 
     -0.441574237838 
     -0.319756268746 
     -0.517421630587 
     -0.441695257177 
     -0.319260184917 
     -0.321401556296 
     -0.169991780130 
      0.001841925183 
     -0.321138539240 
     -0.169955571687 
      0.001478845575 
     -0.320857857753 
     -0.170111255271 
      0.001456455178 
      0.001088686429 
     -0.168308045104 
     -0.317772701473 
      0.001084447933 
     -0.168417816532 
     -0.317809384064 
      0.002294613421 
     -0.168888677381 
     -0.317575037672 
     -0.316317300338 
     -0.439014547385 
     -0.515293025087 
     -0.316187822583 
     -0.439013116723 
     -0.515412458276 
     -0.316082542611 
     -0.438907866775 
     -0.515552849285 
     -0.514507162626 
     -0.543764759927 
     -0.515667797890 
     -0.514584574639 
     -0.543670102555 
     -0.515696705212 
     -0.514705186444 
     -0.543601087546 
     -0.515736489453 
     -0.516718451575 
     -0.440488192006 
     -0.318402763376 
     -0.516775889174 
     -0.440509672072 
     -0.318385465738 
     -0.516864277079 
     -0.440511069193 
     -0.318365869980 
     -0.320819413771 
     -0.168511176477 
      0.001420645238 
     -0.320791443589 
     -0.168513223264 
      0.001412963764 
     -0.320786987659 
     -0.168518506209 
      0.001416284129 
     -0.001461429841 
      0.168510285640 
      0.320922157789 
     -0.001464151554 
      0.168514147986 
      0.320918746546 
     -0.001461687480 
      0.168514444796 
      0.320918396533 
      0.318493745563 
      0.440596887873 
      0.516641083888 
      0.318488910051 
      0.440597610729 
      0.516641430377 
      0.318488224871 
      0.440597766190 
      0.516641585368 
      0.515543844838 
      0.543150624512 
      0.513708683997 
      0.515542943589 
      0.543150416270 
      0.513710253027 
      0.515542715064 
      0.543150353492 
      0.513711077148 
      0.514506880630 
      0.437835782312 
      0.315200249049 
      0.514507569959 
      0.437834581700 
      0.315204645084 
      0.514507926653 
      0.437833867818 
      0.315206626869 
      0.317743898258 
      0.166798912951 
     -0.001653693741 
      0.317748894768 
      0.166795035587 
     -0.001656223175 
      0.317751323275 
      0.166793612376 
     -0.001662598662 
      0.001588914825 
     -0.166791359456 
     -0.317549939333 
      0.001596942185 
     -0.166786286005 
     -0.317589624616 
      0.001594313504 
     -0.166776625068 
     -0.317610216291 
     -0.315041974380 
     -0.437784200734 
     -0.514731361358 
     -0.315062412975 
     -0.437766669867 
     -0.514714723065 
     -0.315093500904 
     -0.437762840058 
     -0.514638893280 
     -0.513908273946 
     -0.543679346291 
     -0.516325269727 
     -0.513892650796 
     -0.543729651588 
     -0.516415114547 
     -0.513864603092 
     -0.543787961503 
     -0.516447902435 
     -0.517440685506 
     -0.441678078491 
     -0.319378776245 
     -0.517434441700 
     -0.441600155133 
     -0.319581495301 
     -0.517461264890 
     -0.441543772969 
     -0.319481660193 
     -0.320829197283 
     -0.170134995684 
      0.001414264807 
     -0.321035022630 
     -0.169579398624 
      0.001053309250 
     -0.320644805103 
     -0.170201369405 
      0.001424580507 
      0.001289132934 
     -0.168595750753 
     -0.317954868433 
      0.001675996770 
     -0.168649207317 
     -0.317960576154 
      0.001638653114 
     -0.168569587855 
     -0.318278352612 
     -0.316136753326 
     -0.438922058725 
     -0.515522364822 
     -0.316166351391 
     -0.438854339238 
     -0.515557314403 
     -0.315911191253 
     -0.438777433829 
     -0.515649947500 
     -0.514689768810 
     -0.543602098410 
     -0.515733409698 
     -0.514726782844 
     -0.543600788374 
     -0.515755896511 
     -0.514773508010 
     -0.543579689674 
     -0.515782755173 
     -0.516864700547 
     -0.440512069083 
     -0.318363995109 
     -0.516900263489 
     -0.440506808807 
     -0.318353730954 
     -0.516924985852 
     -0.440502273848 
     -0.318353497060 
     -0.320785604824 
     -0.168518861527 
      0.001416402838 
     -0.320782592913 
     -0.168524520530 
      0.001420820579 
     -0.320784188287 
     -0.168525724629 
      0.001421699636 
     -0.001461243836 
      0.168514501292 
      0.320918292828 
     -0.001454764761 
      0.168513754469 
      0.320917703181 
     -0.001453675460 
      0.168513834413 
      0.320917382131 
      0.318488258853 
      0.440597777762 
      0.516641516872 
      0.318488924138 
      0.440598120900 
      0.516641258594 
      0.318488603227 
      0.440598336591 
      0.516641208371 
      0.515542707657 
      0.543150372410 
      0.513710966042 
      0.515542365076 
      0.543150335750 
      0.513712146786 
      0.515541933376 
      0.543150346481 
      0.513712877304 
      0.514507880681 
      0.437833947154 
      0.315206324355 
      0.514508583855 
      0.437832839413 
      0.315209052782 
      0.514508688100 
      0.437832350980 
      0.315210703107 
      0.317751059449 
      0.166793829584 
     -0.001662916912 
      0.317754929042 
      0.166791764357 
     -0.001668970250 
      0.317756095700 
      0.166790911040 
     -0.001670916919 
      0.001593813761 
     -0.166776694962 
     -0.317611362638 
      0.001594868850 
     -0.166768815764 
     -0.317633520381 
      0.001593920038 
     -0.166765464365 
     -0.317639501276 
     -0.315094762128 
     -0.437761350331 
     -0.514644207073 
     -0.315115354652 
     -0.437758651223 
     -0.514597317689 
     -0.315127009725 
     -0.437757121606 
     -0.514545920333 
     -0.513871584520 
     -0.543783958250 
     -0.516452313913 
     -0.513841613534 
     -0.543820954699 
     -0.516511283501 
     -0.513824214748 
     -0.543861346461 
     -0.516360591439 
     -0.517494009574 
     -0.441517523326 
     -0.319458057452 
     -0.517504714388 
     -0.441485058363 
     -0.319669306758 
     -0.517394294527 
     -0.441603535803 
     -0.319615436585 
     -0.320970489772 
     -0.169926769257 
      0.001327386581 
     -0.321393860456 
     -0.169814338427 
      0.001555378419 
     -0.321149734151 
     -0.169841746614 
      0.001204287774 
SCALARS  HV  double
LOOKUP_TABLE default
     -0.000391471392 
      0.000308491505 
     -0.000198818736 
      0.000090618508 
     -0.000037960913 
      0.000136200262 
     -0.001202325250 
      0.000039554908 
     -0.000402318679 
     -0.000152656973 
     -0.000003965810 
      0.000030129061 
     -0.000024635398 
     -0.000007872878 
     -0.000073290826 
      0.000149803435 
      0.000006778179 
     -0.000100582338 
      0.000006047777 
     -0.000016311919 
      0.000008701895 
     -0.000081122126 
     -0.000005511035 
      0.000018323264 
     -0.000106100801 
     -0.000004840272 
      0.000020386512 
      0.000004475704 
     -0.000000814841 
      0.000000004466 
      0.000021464289 
     -0.000001218148 
     -0.000005828875 
      0.000030495839 
      0.000000727842 
     -0.000010797859 
     -0.000000809674 
      0.000000330421 
      0.000000324521 
     -0.000003151467 
      0.000002919340 
     -0.000002358803 
     -0.000007090664 
      0.000005081420 
     -0.000003138684 
     -0.000000324622 
     -0.000000077025 
      0.000000320240 
     -0.000003500582 
      0.000000320728 
      0.000000278992 
     -0.000005248530 
      0.000000151235 
      0.000000974993 
     -0.000000033655 
     -0.000000099411 
      0.000000120066 
     -0.000000289728 
     -0.000000136728 
      0.000000203648 
     -0.000000037861 
     -0.000000371385 
      0.000000393633 
      0.000000099156 
     -0.000000038300 
     -0.000000049123 
      0.000000075915 
     -0.000000020431 
      0.000000037565 
      0.000000383009 
     -0.000000081706 
      0.000000059980 
     -0.000000054147 
      0.000000061966 
     -0.000000300858 
     -0.000000032169 
     -0.000000016103 
      0.000000123642 
      0.000000206663 
     -0.000000092698 
     -0.000000323152 
     -0.000000438779 
      0.000000135559 
     -0.000000067596 
      0.000000070893 
     -0.000000171616 
     -0.000000532978 
      0.000000238568 
      0.000000436797 
     -0.000003674471 
     -0.000000889643 
      0.000000024570 