# vtk DataFile Version 2.0
NDG-FEM NonhydrostaticStandingWave2d Simulation
ASCII
DATASET UNSTRUCTURED_GRID

POINTS 480 double
0.00000000000000000000  0.00000000000000000000  0.00000000000000000000
1.00000000000000000000  0.00000000000000000000  0.00000000000000000000
2.00000000000000000000  0.00000000000000000000  0.00000000000000000000
0.00000000000000000000  1.00000000000000000000  0.00000000000000000000
1.00000000000000000000  1.00000000000000000000  0.00000000000000000000
0.00000000000000000000  2.00000000000000000000  0.00000000000000000000
2.00000000000000000000  0.00000000000000000000  0.00000000000000000000
3.00000000000000000000  0.00000000000000000000  0.00000000000000000000
4.00000000000000000000  0.00000000000000000000  0.00000000000000000000
2.00000000000000000000  1.00000000000000000000  0.00000000000000000000
3.00000000000000000000  1.00000000000000000000  0.00000000000000000000
2.00000000000000000000  2.00000000000000000000  0.00000000000000000000
4.00000000000000000000  0.00000000000000000000  0.00000000000000000000
5.00000000000000000000  0.00000000000000000000  0.00000000000000000000
6.00000000000000000000  0.00000000000000000000  0.00000000000000000000
4.00000000000000000000  1.00000000000000000000  0.00000000000000000000
5.00000000000000000000  1.00000000000000000000  0.00000000000000000000
4.00000000000000000000  2.00000000000000000000  0.00000000000000000000
6.00000000000000000000  0.00000000000000000000  0.00000000000000000000
7.00000000000000000000  0.00000000000000000000  0.00000000000000000000
8.00000000000000000000  0.00000000000000000000  0.00000000000000000000
6.00000000000000000000  1.00000000000000000000  0.00000000000000000000
7.00000000000000000000  1.00000000000000000000  0.00000000000000000000
6.00000000000000000000  2.00000000000000000000  0.00000000000000000000
8.00000000000000000000  0.00000000000000000000  0.00000000000000000000
9.00000000000000000000  0.00000000000000000000  0.00000000000000000000
10.00000000000000000000  0.00000000000000000000  0.00000000000000000000
8.00000000000000000000  1.00000000000000000000  0.00000000000000000000
9.00000000000000000000  1.00000000000000000000  0.00000000000000000000
8.00000000000000000000  2.00000000000000000000  0.00000000000000000000
10.00000000000000000000  0.00000000000000000000  0.00000000000000000000
11.00000000000000000000  0.00000000000000000000  0.00000000000000000000
12.00000000000000000000  0.00000000000000000000  0.00000000000000000000
10.00000000000000000000  1.00000000000000000000  0.00000000000000000000
11.00000000000000000000  1.00000000000000000000  0.00000000000000000000
10.00000000000000000000  2.00000000000000000000  0.00000000000000000000
12.00000000000000000000  0.00000000000000000000  0.00000000000000000000
13.00000000000000000000  0.00000000000000000000  0.00000000000000000000
14.00000000000000000000  0.00000000000000000000  0.00000000000000000000
12.00000000000000000000  1.00000000000000000000  0.00000000000000000000
13.00000000000000000000  1.00000000000000000000  0.00000000000000000000
12.00000000000000000000  2.00000000000000000000  0.00000000000000000000
14.00000000000000000000  0.00000000000000000000  0.00000000000000000000
15.00000000000000000000  0.00000000000000000000  0.00000000000000000000
16.00000000000000000000  0.00000000000000000000  0.00000000000000000000
14.00000000000000000000  1.00000000000000000000  0.00000000000000000000
15.00000000000000000000  1.00000000000000000000  0.00000000000000000000
14.00000000000000000000  2.00000000000000000000  0.00000000000000000000
16.00000000000000000000  0.00000000000000000000  0.00000000000000000000
17.00000000000000000000  0.00000000000000000000  0.00000000000000000000
18.00000000000000000000  0.00000000000000000000  0.00000000000000000000
16.00000000000000000000  1.00000000000000000000  0.00000000000000000000
17.00000000000000000000  1.00000000000000000000  0.00000000000000000000
16.00000000000000000000  2.00000000000000000000  0.00000000000000000000
18.00000000000000000000  0.00000000000000000000  0.00000000000000000000
19.00000000000000000000  0.00000000000000000000  0.00000000000000000000
20.00000000000000000000  0.00000000000000000000  0.00000000000000000000
18.00000000000000000000  1.00000000000000000000  0.00000000000000000000
19.00000000000000000000  1.00000000000000000000  0.00000000000000000000
18.00000000000000000000  2.00000000000000000000  0.00000000000000000000
2.00000000000000000000  0.00000000000000000000  0.00000000000000000000
2.00000000000000000000  1.00000000000000000000  0.00000000000000000000
2.00000000000000000000  2.00000000000000000000  0.00000000000000000000
1.00000000000000000000  1.00000000000000000000  0.00000000000000000000
1.00000000000000000000  2.00000000000000000000  0.00000000000000000000
0.00000000000000000000  2.00000000000000000000  0.00000000000000000000
4.00000000000000000000  0.00000000000000000000  0.00000000000000000000
4.00000000000000000000  1.00000000000000000000  0.00000000000000000000
4.00000000000000000000  2.00000000000000000000  0.00000000000000000000
3.00000000000000000000  1.00000000000000000000  0.00000000000000000000
3.00000000000000000000  2.00000000000000000000  0.00000000000000000000
2.00000000000000000000  2.00000000000000000000  0.00000000000000000000
6.00000000000000000000  0.00000000000000000000  0.00000000000000000000
6.00000000000000000000  1.00000000000000000000  0.00000000000000000000
6.00000000000000000000  2.00000000000000000000  0.00000000000000000000
5.00000000000000000000  1.00000000000000000000  0.00000000000000000000
5.00000000000000000000  2.00000000000000000000  0.00000000000000000000
4.00000000000000000000  2.00000000000000000000  0.00000000000000000000
8.00000000000000000000  0.00000000000000000000  0.00000000000000000000
8.00000000000000000000  1.00000000000000000000  0.00000000000000000000
8.00000000000000000000  2.00000000000000000000  0.00000000000000000000
7.00000000000000000000  1.00000000000000000000  0.00000000000000000000
7.00000000000000000000  2.00000000000000000000  0.00000000000000000000
6.00000000000000000000  2.00000000000000000000  0.00000000000000000000
10.00000000000000000000  0.00000000000000000000  0.00000000000000000000
10.00000000000000000000  1.00000000000000000000  0.00000000000000000000
10.00000000000000000000  2.00000000000000000000  0.00000000000000000000
9.00000000000000000000  1.00000000000000000000  0.00000000000000000000
9.00000000000000000000  2.00000000000000000000  0.00000000000000000000
8.00000000000000000000  2.00000000000000000000  0.00000000000000000000
12.00000000000000000000  0.00000000000000000000  0.00000000000000000000
12.00000000000000000000  1.00000000000000000000  0.00000000000000000000
12.00000000000000000000  2.00000000000000000000  0.00000000000000000000
11.00000000000000000000  1.00000000000000000000  0.00000000000000000000
11.00000000000000000000  2.00000000000000000000  0.00000000000000000000
10.00000000000000000000  2.00000000000000000000  0.00000000000000000000
14.00000000000000000000  0.00000000000000000000  0.00000000000000000000
14.00000000000000000000  1.00000000000000000000  0.00000000000000000000
14.00000000000000000000  2.00000000000000000000  0.00000000000000000000
13.00000000000000000000  1.00000000000000000000  0.00000000000000000000
13.00000000000000000000  2.00000000000000000000  0.00000000000000000000
12.00000000000000000000  2.00000000000000000000  0.00000000000000000000
16.00000000000000000000  0.00000000000000000000  0.00000000000000000000
16.00000000000000000000  1.00000000000000000000  0.00000000000000000000
16.00000000000000000000  2.00000000000000000000  0.00000000000000000000
15.00000000000000000000  1.00000000000000000000  0.00000000000000000000
15.00000000000000000000  2.00000000000000000000  0.00000000000000000000
14.00000000000000000000  2.00000000000000000000  0.00000000000000000000
18.00000000000000000000  0.00000000000000000000  0.00000000000000000000
18.00000000000000000000  1.00000000000000000000  0.00000000000000000000
18.00000000000000000000  2.00000000000000000000  0.00000000000000000000
17.00000000000000000000  1.00000000000000000000  0.00000000000000000000
17.00000000000000000000  2.00000000000000000000  0.00000000000000000000
16.00000000000000000000  2.00000000000000000000  0.00000000000000000000
20.00000000000000000000  0.00000000000000000000  0.00000000000000000000
20.00000000000000000000  1.00000000000000000000  0.00000000000000000000
20.00000000000000000000  2.00000000000000000000  0.00000000000000000000
19.00000000000000000000  1.00000000000000000000  0.00000000000000000000
19.00000000000000000000  2.00000000000000000000  0.00000000000000000000
18.00000000000000000000  2.00000000000000000000  0.00000000000000000000
0.00000000000000000000  2.00000000000000000000  0.00000000000000000000
1.00000000000000000000  2.00000000000000000000  0.00000000000000000000
2.00000000000000000000  2.00000000000000000000  0.00000000000000000000
0.00000000000000000000  3.00000000000000000000  0.00000000000000000000
1.00000000000000000000  3.00000000000000000000  0.00000000000000000000
0.00000000000000000000  4.00000000000000000000  0.00000000000000000000
2.00000000000000000000  2.00000000000000000000  0.00000000000000000000
3.00000000000000000000  2.00000000000000000000  0.00000000000000000000
4.00000000000000000000  2.00000000000000000000  0.00000000000000000000
2.00000000000000000000  3.00000000000000000000  0.00000000000000000000
3.00000000000000000000  3.00000000000000000000  0.00000000000000000000
2.00000000000000000000  4.00000000000000000000  0.00000000000000000000
4.00000000000000000000  2.00000000000000000000  0.00000000000000000000
5.00000000000000000000  2.00000000000000000000  0.00000000000000000000
6.00000000000000000000  2.00000000000000000000  0.00000000000000000000
4.00000000000000000000  3.00000000000000000000  0.00000000000000000000
5.00000000000000000000  3.00000000000000000000  0.00000000000000000000
4.00000000000000000000  4.00000000000000000000  0.00000000000000000000
[...]
POINT_DATA 480
SCALARS  H  double
LOOKUP_TABLE default
      7.574911516926 
      7.576796794379 
      7.581788518535 
      7.574849563001 
      7.576723653320 
      7.574679920647 
      7.581656560287 
      7.590095186266 
      7.600113283350 
      7.581837147667 
      7.589978676658 
      7.581802737003 
      7.599999078066 
      7.611843333727 
      7.623185169202 
      7.600228143003 
      7.611740601383 
      7.600201497502 
      7.623129651246 
      7.633881413466 
      7.642178438265 
      7.623304855869 
      7.633829344627 
      7.623280181395 
      7.642195347749 
      7.647620535850 
      7.649591871811 
      7.642251339143 
      7.647645651086 
      7.642236896045 
      7.649643267181 
      7.647584245560 
      7.642381995434 
      7.649563958476 
      7.647660973355 
      7.649559532699 
      7.642485641252 
      7.633776458986 
      7.623489664220 
      7.642296403820 
      7.633882340695 
      7.642307163118 
      7.623613483341 
      7.611712354243 
      7.600406709250 
      7.623381887139 
      7.611809240557 
      7.623395903352 
      7.600505302954 
      7.589981981395 
      7.581957778580 
      7.600315232876 
      7.590036736667 
      7.600323603245 
      7.581986244969 
      7.576747306590 
      7.574682886657 
      7.581895133774 
      7.576752697454 
      7.581881703433 
      7.581713405945 
      7.581886394766 
      7.581870485934 
      7.576726784241 
      7.576728734408 
      7.574719394332 
      7.600062321967 
      7.600299179824 
      7.600288300417 
      7.589992483168 
      7.590006166902 
      7.581799215358 
      7.623173074799 
      7.623365302501 
      7.623350569211 
      7.611757448376 
      7.611780864324 
      7.600174645660 
      7.642209530937 
      7.642283056624 
      7.642266389628 
      7.633842745379 
      7.633865136437 
      7.623241869706 
      7.649628654758 
      7.649553247027 
      7.649557979477 
      7.647650628008 
      7.647661983964 
      7.642197220417 
      7.642431061882 
      7.642249127587 
      7.642262486838 
      7.647667301212 
      7.647663078106 
      7.649529435438 
      7.623537716624 
      7.623314720679 
      7.623318851662 
      7.633881073844 
      7.633865920054 
      7.642293886722 
      7.600435572479 
      7.600248366551 
      7.600239051778 
      7.611800424720 
      7.611779066883 
      7.623425281340 
      7.581954637566 
      7.581857788725 
      7.581824210217 
      7.590024331132 
      7.590006128138 
      7.600383376599 
      7.574629535779 
      7.574804656423 
      7.574682959830 
      7.576740779370 
      7.576718011529 
      7.581945527336 
      7.574702079342 
      7.576720952401 
      7.581918841109 
      7.574802327921 
      7.576734236936 
      7.574645391220 
      7.581808614224 
      7.589992974513 
      7.600345070001 
      7.581867294062 
      7.590005010630 
      7.581816268457 
      7.600207137716 
      7.611766500980 
      7.623389582093 
      7.600243820616 
      7.611774419090 
      7.600225804083 
      7.623286312808 
      7.633854973552 
      7.642272738296 
      7.623299142214 
      7.633857475161 
      7.623300576886 
      7.642237654222 
      7.647659086553 
      7.649530420959 
      7.642225880012 
      7.647655260582 
      7.642246634117 
      7.649551370282 
      7.647664840960 
      7.642221974378 
      7.649529101123 
      7.647652845752 
      7.649555310423 
      7.642284897060 
      7.633875071801 
      7.623279313108 
      7.642260188589 
      7.633862726246 
      7.642288748879 
      7.623387850585 
      7.611793518247 
      7.600211360153 
      7.623358755688 
      7.611785596815 
      7.623371506244 
      7.600333375526 
      7.590019742402 
      7.581822255781 
      7.600310754528 
      7.590016712118 
      7.600300873432 
      7.581904971387 
      7.576728070942 
      7.574694522315 
      7.581914864669 
      7.576745240399 
      7.581866858126 
      7.581855847246 
      7.581914958321 
      7.581889165909 
      7.576740275112 
      7.576731364289 
      7.574690741580 
      7.600284421762 
      7.600313094785 
      7.600316687073 
      7.590017212819 
      7.590012412378 
      7.581807702074 
      7.623359911564 
      7.623360221432 
      7.623368796091 
      7.611786024784 
      7.611788235575 
      7.600193515216 
      7.642285474321 
      7.642259897532 
      7.642269932096 
      7.633863853863 
      7.633871625447 
      7.623259607607 
      7.649561579362 
      7.649527517317 
      7.649544221715 
      7.647653682157 
      7.647664218358 
      7.642207110757 
      7.642260253300 
      7.642223834271 
      7.642240348444 
      7.647655490812 
      7.647662342633 
      7.649523824099 
      7.623318817751 
      7.623296595357 
      7.623297045162 
      7.633857061220 
      7.633862781620 
      7.642277076599 
      7.600242257354 
      7.600242258025 
      7.600223036412 
      7.611774014939 
      7.611774405719 
      7.623403143183 
      7.581830622586 
      7.581868337384 
      7.581819353493 
      7.590003850041 
      7.589998886330 
      7.600363271268 
      7.574649848416 
      7.574793151120 
      7.574689380842 
      7.576738205237 
      7.576722683682 
      7.581930013377 
      7.574689380842 
      7.576722683682 
      7.581930013377 
      7.574793151120 
      7.576738205237 
      7.574649848416 
      7.581819353493 
      7.589998886330 
      7.600363271268 
      7.581868337384 
      7.590003850041 
      7.581830622586 
      7.600223036412 
      7.611774405719 
      7.623403143183 
      7.600242258025 
      7.611774014939 
      7.600242257354 
      7.623297045162 
      7.633862781620 
      7.642277076599 
      7.623296595357 
      7.633857061220 
      7.623318817751 
      7.642240348444 
      7.647662342633 
      7.649523824099 
      7.642223834271 
      7.647655490812 
      7.642260253300 
      7.649544221715 
      7.647664218358 
      7.642207110757 
      7.649527517317 
      7.647653682157 
      7.649561579362 
      7.642269932096 
      7.633871625447 
      7.623259607607 
      7.642259897532 
      7.633863853863 
      7.642285474321 
      7.623368796091 
      7.611788235575 
      7.600193515216 
      7.623360221432 
      7.611786024784 
      7.623359911564 
      7.600316687073 
      7.590012412378 
      7.581807702074 
      7.600313094785 
      7.590017212819 
      7.600284421762 
      7.581889165909 
      7.576731364289 
      7.574690741580 
      7.581914958321 
      7.576740275112 
      7.581855847246 
      7.581866858126 
      7.581914864669 
      7.581904971387 
      7.576745240399 
      7.576728070942 
      7.574694522315 
      7.600300873432 
      7.600310754528 
      7.600333375526 
      7.590016712118 
      7.590019742402 
      7.581822255781 
      7.623371506244 
      7.623358755688 
      7.623387850585 
      7.611785596815 
      7.611793518247 
      7.600211360153 
      7.642288748879 
      7.642260188589 
      7.642284897060 
      7.633862726246 
      7.633875071801 
      7.623279313108 
      7.649555310423 
      7.649529101123 
      7.649551370282 
      7.647652845752 
      7.647664840960 
      7.642221974378 
      7.642246634117 
      7.642225880012 
      7.642237654222 
      7.647655260582 
      7.647659086553 
      7.649530420959 
      7.623300576886 
      7.623299142214 
      7.623286312808 
      7.633857475161 
      7.633854973552 
      7.642272738296 
      7.600225804083 
      7.600243820616 
      7.600207137716 
      7.611774419090 
      7.611766500980 
      7.623389582093 
      7.581816268457 
      7.581867294062 
      7.581808614224 
      7.590005010630 
      7.589992974513 
      7.600345070001 
      7.574645391220 
      7.574802327921 
      7.574702079342 
      7.576734236936 
      7.576720952401 
      7.581918841109 
      7.574682959830 
      7.576718011529 
      7.581945527336 
      7.574804656423 
      7.576740779370 
      7.574629535779 
      7.581824210217 
      7.590006128138 
      7.600383376599 
      7.581857788725 
      7.590024331132 
      7.581954637566 
      7.600239051778 
      7.611779066883 
      7.623425281340 
      7.600248366551 
      7.611800424720 
      7.600435572479 
      7.623318851662 
      7.633865920054 
      7.642293886722 
      7.623314720679 
      7.633881073844 
      7.623537716624 
      7.642262486838 
      7.647663078106 
      7.649529435438 
      7.642249127587 
      7.647667301212 
      7.642431061882 
      7.649557979477 
      7.647661983964 
      7.642197220417 
      7.649553247027 
      7.647650628008 
      7.649628654758 
      7.642266389628 
      7.633865136437 
      7.623241869706 
      7.642283056624 
      7.633842745379 
      7.642209530937 
      7.623350569211 
      7.611780864324 
      7.600174645660 
      7.623365302501 
      7.611757448376 
      7.623173074799 
      7.600288300417 
      7.590006166902 
      7.581799215358 
      7.600299179824 
      7.589992483168 
      7.600062321967 
      7.581870485934 
      7.576728734408 
      7.574719394332 
      7.581886394766 
      7.576726784241 
      7.581713405945 
      7.581881703433 
      7.581895133774 
      7.581986244969 
      7.576752697454 
      7.576747306590 
      7.574682886657 
      7.600323603245 
      7.600315232876 
      7.600505302954 
      7.590036736667 
      7.589981981395 
      7.581957778580 
      7.623395903352 
      7.623381887139 
      7.623613483341 
      7.611809240557 
      7.611712354243 
      7.600406709250 
      7.642307163118 
      7.642296403820 
      7.642485641252 
      7.633882340695 
      7.633776458986 
      7.623489664220 
      7.649559532699 
      7.649563958476 
      7.649643267181 
      7.647660973355 
      7.647584245560 
      7.642381995434 
      7.642236896045 
      7.642251339143 
      7.642195347749 
      7.647645651086 
      7.647620535850 
      7.649591871811 
      7.623280181395 
      7.623304855869 
      7.623129651246 
      7.633829344627 
      7.633881413466 
      7.642178438265 
      7.600201497502 
      7.600228143003 
      7.599999078066 
      7.611740601383 
      7.611843333727 
      7.623185169202 
      7.581802737003 
      7.581837147667 
      7.581656560287 
      7.589978676658 
      7.590095186266 
      7.600113283350 
      7.574679920647 
      7.574849563001 
      7.574911516926 
      7.576723653320 
      7.576796794379 
      7.581788518535 
SCALARS  HU  double
LOOKUP_TABLE default
      0.000469267275 
     -0.158733976441 
     -0.306792479717 
      0.000376153030 
     -0.159892551384 
      0.000639604929 
     -0.304239336181 
     -0.416952107142 
     -0.491997805505 
     -0.303310180114 
     -0.417312784724 
     -0.303736093611 
     -0.490599975571 
     -0.513976138666 
     -0.488310784094 
     -0.489777619856 
     -0.513770318498 
     -0.490332512397 
     -0.488637332639 
     -0.414716874738 
     -0.299114316196 
     -0.488196649719 
     -0.414013299589 
     -0.488716648609 
     -0.301055261211 
     -0.158560036294 
      0.002710400319 
     -0.301168374861 
     -0.157696262890 
     -0.301414853319 
      0.000105149548 
      0.157174533730 
      0.303528258322 
     -0.000644086601 
      0.157968364813 
     -0.000524783763 
      0.301167253485 
      0.413777134520 
      0.489956298170 
      0.300180875845 
      0.414214990428 
      0.300470243400 
      0.488762326557 
      0.513923676442 
      0.490263186933 
      0.487857154046 
      0.513781260917 
      0.488352201204 
      0.490647677552 
      0.417777484460 
      0.302328543416 
      0.490180699619 
      0.417124360324 
      0.490678645108 
      0.304187782448 
      0.160562584805 
     -0.002474004196 
      0.304276667794 
      0.159460844028 
      0.304697736191 
     -0.305179888344 
     -0.303973701231 
     -0.304919941042 
     -0.160385560236 
     -0.160000029179 
      0.001952057150 
     -0.490952977022 
     -0.490042127650 
     -0.490852366037 
     -0.417633018871 
     -0.417548328875 
     -0.303011983357 
     -0.488247055167 
     -0.487949084395 
     -0.488367526664 
     -0.513790018347 
     -0.513982413602 
     -0.490457777315 
     -0.300034070735 
     -0.300478485758 
     -0.300344314370 
     -0.413734511937 
     -0.414124181241 
     -0.489607828222 
      0.001135915301 
      0.000250702463 
      0.000793167894 
     -0.157225260123 
     -0.157623295308 
     -0.302760127969 
      0.301967037536 
      0.300857651273 
      0.301686618043 
      0.158441276889 
      0.158127836848 
     -0.001757721508 
      0.488984889897 
      0.488086478420 
      0.488859063017 
      0.414502075826 
      0.414428080631 
      0.299841250807 
      0.490213975719 
      0.489895991406 
      0.490332526740 
      0.513785769001 
      0.513960202862 
      0.488534439046 
      0.303249412144 
      0.303577125001 
      0.303569130764 
      0.416836306950 
      0.417207060052 
      0.491639551340 
     -0.000827185330 
     -0.000459468934 
     -0.000827520999 
      0.158958053969 
      0.159442190785 
      0.306128535265 
      0.000771746295 
     -0.159357672680 
     -0.306252004338 
      0.000454167615 
     -0.159397870003 
      0.000732915395 
     -0.303784162141 
     -0.417138112008 
     -0.491723541420 
     -0.303412677185 
     -0.417099802388 
     -0.303557239391 
     -0.490432588899 
     -0.513964295662 
     -0.488462259998 
     -0.489811558459 
     -0.513828104613 
     -0.490256186723 
     -0.488788331082 
     -0.414505774228 
     -0.299635846710 
     -0.488133949856 
     -0.414312203850 
     -0.488767320836 
     -0.301464931718 
     -0.158249442340 
      0.002014905363 
     -0.301025887332 
     -0.158109647744 
     -0.301575274215 
     -0.000474200376 
      0.157498833859 
      0.302921972591 
     -0.000508421854 
      0.157611653564 
     -0.000735270687 
      0.300616338739 
      0.414040648392 
      0.489645627187 
      0.300241585016 
      0.414013888468 
      0.300311337942 
      0.488500169126 
      0.513961861097 
      0.490377173351 
      0.487851173868 
      0.513831689075 
      0.488299733228 
      0.490788654731 
      0.417598054375 
      0.302835731854 
      0.490108803175 
      0.417407041462 
      0.490764073972 
      0.304693951148 
      0.160130277214 
     -0.002082507251 
      0.304178736633 
      0.159904747346 
      0.304841789756 
     -0.304874806905 
     -0.304194013763 
     -0.304730029344 
     -0.159962555581 
     -0.160086992954 
      0.002085531891 
     -0.490803738385 
     -0.490131841303 
     -0.490792143929 
     -0.417435001588 
     -0.417584744214 
     -0.302867231204 
     -0.488304830766 
     -0.487869775469 
     -0.488463386775 
     -0.513833060488 
     -0.513968221582 
     -0.490371836019 
     -0.300283151439 
     -0.300259010756 
     -0.300553284373 
     -0.413995337591 
     -0.414060760697 
     -0.489610004978 
      0.000784246206 
      0.000502261060 
      0.000550057298 
     -0.157584586227 
     -0.157526170095 
     -0.302867115710 
      0.301611341106 
      0.301032488326 
      0.301499929527 
      0.158135080961 
      0.158219990188 
     -0.001943901694 
      0.488792571147 
      0.488148841211 
      0.488775729739 
      0.414327641576 
      0.414486511198 
      0.299687457119 
      0.490267613836 
      0.489823311143 
      0.490381150599 
      0.513823720038 
      0.513960763627 
      0.488469006754 
      0.303530694846 
      0.303402988849 
      0.303717827471 
      0.417071969544 
      0.417145719641 
      0.491685129908 
     -0.000727988222 
     -0.000479039838 
     -0.000800286787 
      0.159340987760 
      0.159365860477 
      0.306212144219 
      0.000800286787 
     -0.159365860477 
     -0.306212144219 
      0.000479039838 
     -0.159340987760 
      0.000727988222 
     -0.303717827471 
     -0.417145719641 
     -0.491685129908 
     -0.303402988849 
     -0.417071969544 
     -0.303530694846 
     -0.490381150599 
     -0.513960763627 
     -0.488469006754 
     -0.489823311143 
     -0.513823720038 
     -0.490267613836 
     -0.488775729739 
     -0.414486511198 
     -0.299687457119 
     -0.488148841211 
     -0.414327641576 
     -0.488792571147 
     -0.301499929527 
     -0.158219990188 
      0.001943901694 
     -0.301032488326 
     -0.158135080961 
     -0.301611341106 
     -0.000550057298 
      0.157526170095 
      0.302867115710 
     -0.000502261060 
      0.157584586227 
     -0.000784246206 
      0.300553284373 
      0.414060760697 
      0.489610004978 
      0.300259010756 
      0.413995337591 
      0.300283151439 
      0.488463386775 
      0.513968221582 
      0.490371836019 
      0.487869775469 
      0.513833060488 
      0.488304830766 
      0.490792143929 
      0.417584744214 
      0.302867231204 
      0.490131841303 
      0.417435001588 
      0.490803738385 
      0.304730029345 
      0.160086992954 
     -0.002085531891 
      0.304194013763 
      0.159962555581 
      0.304874806905 
     -0.304841789756 
     -0.304178736633 
     -0.304693951148 
     -0.159904747346 
     -0.160130277214 
      0.002082507251 
     -0.490764073972 
     -0.490108803175 
     -0.490788654731 
     -0.417407041462 
     -0.417598054375 
     -0.302835731854 
     -0.488299733228 
     -0.487851173868 
     -0.488500169126 
     -0.513831689075 
     -0.513961861097 
     -0.490377173351 
     -0.300311337942 
     -0.300241585016 
     -0.300616338739 
     -0.414013888468 
     -0.414040648392 
     -0.489645627187 
      0.000735270687 
      0.000508421854 
      0.000474200376 
     -0.157611653564 
     -0.157498833859 
     -0.302921972591 
      0.301575274215 
      0.301025887332 
      0.301464931718 
      0.158109647744 
      0.158249442340 
     -0.002014905363 
      0.488767320836 
      0.488133949856 
      0.488788331082 
      0.414312203850 
      0.414505774228 
      0.299635846710 
      0.490256186723 
      0.489811558459 
      0.490432588899 
      0.513828104613 
      0.513964295662 
      0.488462259998 
      0.303557239391 
      0.303412677185 
      0.303784162141 
      0.417099802388 
      0.417138112008 
      0.491723541420 
     -0.000732915395 
     -0.000454167615 
     -0.000771746295 
      0.159397870003 
      0.159357672680 
      0.306252004338 
      0.000827520999 
     -0.159442190785 
     -0.306128535265 
      0.000459468934 
     -0.158958053969 
      0.000827185330 
     -0.303569130764 
     -0.417207060052 
     -0.491639551340 
     -0.303577125001 
     -0.416836306950 
     -0.303249412144 
     -0.490332526740 
     -0.513960202862 
     -0.488534439046 
     -0.489895991406 
     -0.513785769001 
     -0.490213975719 
     -0.488859063017 
     -0.414428080631 
     -0.299841250807 
     -0.488086478420 
     -0.414502075826 
     -0.488984889897 
     -0.301686618043 
     -0.158127836848 
      0.001757721508 
     -0.300857651273 
     -0.158441276889 
     -0.301967037536 
     -0.000793167894 
      0.157623295308 
      0.302760127969 
     -0.000250702463 
      0.157225260123 
     -0.001135915301 
      0.300344314370 
      0.414124181241 
      0.489607828222 
      0.300478485758 
      0.413734511937 
      0.300034070735 
      0.488367526664 
      0.513982413602 
      0.490457777315 
      0.487949084395 
      0.513790018347 
      0.488247055167 
      0.490852366037 
      0.417548328875 
      0.303011983357 
      0.490042127650 
      0.417633018871 
      0.490952977022 
      0.304919941042 
      0.160000029179 
     -0.001952057150 
      0.303973701231 
      0.160385560236 
      0.305179888344 
     -0.304697736191 
     -0.304276667794 
     -0.304187782448 
     -0.159460844028 