# vtk DataFile Version 2.0
NDG-FEM NonhydrostaticStandingWave2d Simulation
ASCII
DATASET UNSTRUCTURED_GRID

POINTS 405 double
0.00000000000000000000  0.00000000000000000000  0.00000000000000000000
1.00000000000000000000  0.00000000000000000000  0.00000000000000000000
2.00000000000000000000  0.00000000000000000000  0.00000000000000000000
0.00000000000000000000  1.00000000000000000000  0.00000000000000000000
1.00000000000000000000  1.00000000000000000000  0.00000000000000000000
2.00000000000000000000  1.00000000000000000000  0.00000000000000000000
0.00000000000000000000  2.00000000000000000000  0.00000000000000000000
1.00000000000000000000  2.00000000000000000000  0.00000000000000000000
2.00000000000000000000  2.00000000000000000000  0.00000000000000000000
2.00000000000000000000  0.00000000000000000000  0.00000000000000000000
3.00000000000000000000  0.00000000000000000000  0.00000000000000000000
4.00000000000000000000  0.00000000000000000000  0.00000000000000000000
2.00000000000000000000  1.00000000000000000000  0.00000000000000000000
3.00000000000000000000  1.00000000000000000000  0.00000000000000000000
4.00000000000000000000  1.00000000000000000000  0.00000000000000000000
2.00000000000000000000  2.00000000000000000000  0.00000000000000000000
3.00000000000000000000  2.00000000000000000000  0.00000000000000000000
4.00000000000000000000  2.00000000000000000000  0.00000000000000000000
4.00000000000000000000  0.00000000000000000000  0.00000000000000000000
5.00000000000000000000  0.00000000000000000000  0.00000000000000000000
6.00000000000000000000  0.00000000000000000000  0.00000000000000000000
4.00000000000000000000  1.00000000000000000000  0.00000000000000000000
5.00000000000000000000  1.00000000000000000000  0.00000000000000000000
6.00000000000000000000  1.00000000000000000000  0.00000000000000000000
4.00000000000000000000  2.00000000000000000000  0.00000000000000000000
5.00000000000000000000  2.00000000000000000000  0.00000000000000000000
6.00000000000000000000  2.00000000000000000000  0.00000000000000000000
6.00000000000000000000  0.00000000000000000000  0.00000000000000000000
7.00000000000000000000  0.00000000000000000000  0.00000000000000000000
8.00000000000000000000  0.00000000000000000000  0.00000000000000000000
6.00000000000000000000  1.00000000000000000000  0.00000000000000000000
7.00000000000000000000  1.00000000000000000000  0.00000000000000000000
8.00000000000000000000  1.00000000000000000000  0.00000000000000000000
6.00000000000000000000  2.00000000000000000000  0.00000000000000000000
7.00000000000000000000  2.00000000000000000000  0.00000000000000000000
8.00000000000000000000  2.00000000000000000000  0.00000000000000000000
8.00000000000000000000  0.00000000000000000000  0.00000000000000000000
9.00000000000000000000  0.00000000000000000000  0.00000000000000000000
10.00000000000000000000  0.00000000000000000000  0.00000000000000000000
8.00000000000000000000  1.00000000000000000000  0.00000000000000000000
9.00000000000000000000  1.00000000000000000000  0.00000000000000000000
10.00000000000000000000  1.00000000000000000000  0.00000000000000000000
8.00000000000000000000  2.00000000000000000000  0.00000000000000000000
9.00000000000000000000  2.00000000000000000000  0.00000000000000000000
10.00000000000000000000  2.00000000000000000000  0.00000000000000000000
10.00000000000000000000  0.00000000000000000000  0.00000000000000000000
11.00000000000000000000  0.00000000000000000000  0.00000000000000000000
12.00000000000000000000  0.00000000000000000000  0.00000000000000000000
10.00000000000000000000  1.00000000000000000000  0.00000000000000000000
11.00000000000000000000  1.00000000000000000000  0.00000000000000000000
12.00000000000000000000  1.00000000000000000000  0.00000000000000000000
10.00000000000000000000  2.00000000000000000000  0.00000000000000000000
11.00000000000000000000  2.00000000000000000000  0.00000000000000000000
12.00000000000000000000  2.00000000000000000000  0.00000000000000000000
12.00000000000000000000  0.00000000000000000000  0.00000000000000000000
13.00000000000000000000  0.00000000000000000000  0.00000000000000000000
14.00000000000000000000  0.00000000000000000000  0.00000000000000000000
12.00000000000000000000  1.00000000000000000000  0.00000000000000000000
13.00000000000000000000  1.00000000000000000000  0.00000000000000000000
14.00000000000000000000  1.00000000000000000000  0.00000000000000000000
12.00000000000000000000  2.00000000000000000000  0.00000000000000000000
13.00000000000000000000  2.00000000000000000000  0.00000000000000000000
14.00000000000000000000  2.00000000000000000000  0.00000000000000000000
14.00000000000000000000  0.00000000000000000000  0.00000000000000000000
15.00000000000000000000  0.00000000000000000000  0.00000000000000000000
16.00000000000000000000  0.00000000000000000000  0.00000000000000000000
14.00000000000000000000  1.00000000000000000000  0.00000000000000000000
15.00000000000000000000  1.00000000000000000000  0.00000000000000000000
16.00000000000000000000  1.00000000000000000000  0.00000000000000000000
14.00000000000000000000  2.00000000000000000000  0.00000000000000000000
15.00000000000000000000  2.00000000000000000000  0.00000000000000000000
16.00000000000000000000  2.00000000000000000000  0.00000000000000000000
16.00000000000000000000  0.00000000000000000000  0.00000000000000000000
17.00000000000000000000  0.00000000000000000000  0.00000000000000000000
18.00000000000000000000  0.00000000000000000000  0.00000000000000000000
16.00000000000000000000  1.00000000000000000000  0.00000000000000000000
17.00000000000000000000  1.00000000000000000000  0.00000000000000000000
18.00000000000000000000  1.00000000000000000000  0.00000000000000000000
16.00000000000000000000  2.00000000000000000000  0.00000000000000000000
17.00000000000000000000  2.00000000000000000000  0.00000000000000000000
18.00000000000000000000  2.00000000000000000000  0.00000000000000000000
18.00000000000000000000  0.00000000000000000000  0.00000000000000000000
19.00000000000000000000  0.00000000000000000000  0.00000000000000000000
20.00000000000000000000  0.00000000000000000000  0.00000000000000000000
18.00000000000000000000  1.00000000000000000000  0.00000000000000000000
19.00000000000000000000  1.00000000000000000000  0.00000000000000000000
20.00000000000000000000  1.00000000000000000000  0.00000000000000000000
18.00000000000000000000  2.00000000000000000000  0.00000000000000000000
19.00000000000000000000  2.00000000000000000000  0.00000000000000000000
20.00000000000000000000  2.00000000000000000000  0.00000000000000000000
20.00000000000000000000  0.00000000000000000000  0.00000000000000000000
21.00000000000000000000  0.00000000000000000000  0.00000000000000000000
22.00000000000000000000  0.00000000000000000000  0.00000000000000000000
20.00000000000000000000  1.00000000000000000000  0.00000000000000000000
21.00000000000000000000  1.00000000000000000000  0.00000000000000000000
22.00000000000000000000  1.00000000000000000000  0.00000000000000000000
20.00000000000000000000  2.00000000000000000000  0.00000000000000000000
21.00000000000000000000  2.00000000000000000000  0.00000000000000000000
22.00000000000000000000  2.00000000000000000000  0.00000000000000000000
22.00000000000000000000  0.00000000000000000000  0.00000000000000000000
23.00000000000000000000  0.00000000000000000000  0.00000000000000000000
24.00000000000000000000  0.00000000000000000000  0.00000000000000000000
22.00000000000000000000  1.00000000000000000000  0.00000000000000000000
23.00000000000000000000  1.00000000000000000000  0.00000000000000000000
24.00000000000000000000  1.00000000000000000000  0.00000000000000000000
22.00000000000000000000  2.00000000000000000000  0.00000000000000000000
23.00000000000000000000  2.00000000000000000000  0.00000000000000000000
24.00000000000000000000  2.00000000000000000000  0.00000000000000000000
24.00000000000000000000  0.00000000000000000000  0.00000000000000000000
25.00000000000000000000  0.00000000000000000000  0.00000000000000000000
26.00000000000000000000  0.00000000000000000000  0.00000000000000000000
24.00000000000000000000  1.00000000000000000000  0.00000000000000000000
25.00000000000000000000  1.00000000000000000000  0.00000000000000000000
26.00000000000000000000  1.00000000000000000000  0.00000000000000000000
24.00000000000000000000  2.00000000000000000000  0.00000000000000000000
25.00000000000000000000  2.00000000000000000000  0.00000000000000000000
26.00000000000000000000  2.00000000000000000000  0.00000000000000000000
26.00000000000000000000  0.00000000000000000000  0.00000000000000000000
27.00000000000000000000  0.00000000000000000000  0.00000000000000000000
28.00000000000000000000  0.00000000000000000000  0.00000000000000000000
26.00000000000000000000  1.00000000000000000000  0.00000000000000000000
27.00000000000000000000  1.00000000000000000000  0.00000000000000000000
28.00000000000000000000  1.00000000000000000000  0.00000000000000000000
26.00000000000000000000  2.00000000000000000000  0.00000000000000000000
27.00000000000000000000  2.00000000000000000000  0.00000000000000000000
28.00000000000000000000  2.00000000000000000000  0.00000000000000000000
28.00000000000000000000  0.00000000000000000000  0.00000000000000000000
29.00000000000000000000  0.00000000000000000000  0.00000000000000000000
30.00000000000000000000  0.00000000000000000000  0.00000000000000000000
28.00000000000000000000  1.00000000000000000000  0.00000000000000000000
29.00000000000000000000  1.00000000000000000000  0.00000000000000000000
30.00000000000000000000  1.00000000000000000000  0.00000000000000000000
28.00000000000000000000  2.00000000000000000000  0.00000000000000000000
29.00000000000000000000  2.00000000000000000000  0.00000000000000000000
30.00000000000000000000  2.00000000000000000000  0.00000000000000000000
0.00000000000000000000  2.00000000000000000000  0.00000000000000000000
1.00000000000000000000  2.00000000000000000000  0.00000000000000000000
[...]
POINT_DATA 405
SCALARS  H  double
LOOKUP_TABLE default
      7.644694993238 
      7.643294691556 
      7.638857327224 
      7.644776435728 
      7.643269327133 
      7.638895257709 
      7.644652811505 
      7.643294760709 
      7.638861800962 
      7.638851648722 
      7.632131495468 
      7.623039343723 
      7.638866222415 
      7.632135270262 
      7.623031130243 
      7.638865321388 
      7.632134752793 
      7.623027843192 
      7.623252909010 
      7.612976839550 
      7.602259405788 
      7.623249151084 
      7.612978076423 
      7.602259914159 
      7.623243541543 
      7.612981138782 
      7.602259095445 
      7.602548239736 
      7.592401213343 
      7.584329345750 
      7.602549944855 
      7.592398386131 
      7.584329172986 
      7.602548076062 
      7.592391889827 
      7.584330855332 
      7.584555815344 
      7.578871401712 
      7.577278855240 
      7.584557292639 
      7.578873473105 
      7.577277379207 
      7.584561009085 
      7.578878308477 
      7.577274124491 
      7.577277896153 
      7.578932628266 
      7.584661623004 
      7.577275824190 
      7.578931516279 
      7.584662574063 
      7.577270224044 
      7.578929375994 
      7.584666416454 
      7.584432711566 
      7.592545375669 
      7.602704688291 
      7.584434514111 
      7.592545608571 
      7.602703502419 
      7.584439534988 
      7.592545584784 
      7.602701291306 
      7.602411289875 
      7.613064328847 
      7.623261393298 
      7.602410114530 
      7.613064728141 
      7.623261847247 
      7.602407976773 
      7.613065745963 
      7.623262953075 
      7.623050929095 
      7.632132923285 
      7.638850201175 
      7.623051078868 
      7.632132308715 
      7.638849630175 
      7.623051420683 
      7.632130657803 
      7.638849470759 
      7.638748851074 
      7.643324368389 
      7.644599144485 
      7.638748644176 
      7.643326165659 
      7.644598461725 
      7.638749407950 
      7.643329701550 
      7.644596441138 
      7.644598190113 
      7.643387761960 
      7.638835559188 
      7.644596818118 
      7.643384796220 
      7.638841220353 
      7.644593696986 
      7.643378124665 
      7.638847395111 
      7.638936622664 
      7.632243544936 
      7.623171660597 
      7.638942285213 
      7.632244949292 
      7.623164664127 
      7.638948264747 
      7.632251644964 
      7.623157679612 
      7.623384407021 
      7.613165118084 
      7.602463399153 
      7.623378972382 
      7.613160870254 
      7.602462065868 
      7.623374046574 
      7.613149809763 
      7.602454462883 
      7.602752128677 
      7.592563074133 
      7.584436916325 
      7.602749514264 
      7.592563311057 
      7.584441405016 
      7.602743958765 
      7.592561055206 
      7.584456727252 
      7.584573197938 
      7.578956288922 
      7.577213480856 
      7.584574599597 
      7.578963290543 
      7.577191838744 
      7.584613591283 
      7.578963624993 
      7.577249910582 
      7.644606406440 
      7.643310047630 
      7.638836881913 
      7.644619078280 
      7.643299560328 
      7.638833828559 
      7.644671444661 
      7.643291487820 
      7.638878479837 
      7.638854824498 
      7.632136190119 
      7.623026109448 
      7.638860110920 
      7.632139590805 
      7.623031809117 
      7.638888969084 
      7.632136859408 
      7.623032920261 
      7.623242636247 
      7.612981471464 
      7.602259417318 
      7.623246382230 
      7.612981707004 
      7.602259392366 
      7.623250005769 
      7.612978053524 
      7.602261604047 
      7.602548378376 
      7.592392055977 
      7.584329810685 
      7.602548805946 
      7.592388330527 
      7.584329187583 
      7.602554618053 
      7.592391264135 
      7.584323782806 
      7.584559625663 
      7.578878277465 
      7.577274730995 
      7.584560492072 
      7.578879018390 
      7.577272019625 
      7.584554335211 
      7.578874034110 
      7.577272644357 
      7.577270926199 
      7.578929366157 
      7.584666006738 
      7.577266939034 
      7.578929691864 
      7.584669297246 
      7.577267987432 
      7.578932624975 
      7.584670840135 
      7.584439101989 
      7.592545649652 
      7.602701398511 
      7.584443185253 
      7.592544671455 
      7.602699326188 
      7.584444936055 
      7.592542926389 
      7.602697780096 
      7.602408043216 
      7.613065693971 
      7.623262977218 
      7.602406514701 
      7.613067316022 
      7.623262910149 
      7.602405928410 
      7.613069399408 
      7.623261880047 
      7.623051443809 
      7.632130635670 
      7.638849704056 
      7.623050595916 
      7.632129084712 
      7.638850792124 
      7.623048598603 
      7.632127516344 
      7.638854069259 
      7.638749636584 
      7.643329466499 
      7.644595951069 
      7.638751163437 
      7.643332294754 
      7.644594196196 
      7.638753984037 
      7.643333747540 
      7.644592512156 
      7.644593542778 
      7.643378997805 
      7.638847037641 
      7.644591822991 
      7.643374807111 
      7.638842357469 
      7.644591492050 
      7.643372702681 
      7.638835216752 
      7.638947672360 
      7.632250672153 
      7.623157370038 
      7.638942177569 
      7.632252960028 
      7.623172228642 
      7.638934993162 
      7.632249206440 
      7.623184201022 
      7.623373255418 
      7.613150888639 
      7.602456356409 
      7.623385831678 
      7.613146598766 
      7.602439549573 
      7.623396643937 
      7.613156729379 
      7.602436841567 
      7.602744467433 
      7.592564227532 
      7.584459679191 
      7.602733747387 
      7.592559285526 
      7.584456977788 
      7.602734962962 
      7.592559278973 
      7.584447906282 
      7.584605557570 
      7.578967340142 
      7.577244910077 
      7.584595515367 
      7.578998067320 
      7.577174820841 
      7.584607131485 
      7.578995037625 
      7.577172743288 
      7.644674591200 
      7.643288925192 
      7.638881551505 
      7.644798739987 
      7.643271535469 
      7.638904779314 
      7.644814969023 
      7.643254064341 
      7.638948265821 
      7.638892739195 
      7.632139861158 
      7.623030904291 
      7.638882857246 
      7.632137264351 
      7.623028398235 
      7.638895510795 
      7.632122820917 
      7.623042373617 
      7.623249137516 
      7.612977737319 
      7.602259976020 
      7.623243854849 
      7.612974885763 
      7.602265956322 
      7.623252654050 
      7.612971802448 
      7.602273358894 
      7.602552641100 
      7.592391708645 
      7.584324854149 
      7.602560430741 
      7.592397612594 
      7.584317875545 
      7.602568892837 
      7.592399192574 
      7.584315808093 
      7.584555579683 
      7.578874174568 
      7.577271823715 
      7.584545489588 
      7.578866795678 
      7.577275219502 
      7.584542218298 
      7.578863286302 
      7.577276986457 
      7.577267053946 
      7.578932581629 
      7.584670978632 
      7.577271427083 
      7.578935968531 
      7.584671612657 
      7.577274000816 
      7.578937219310 
      7.584671617971 
      7.584445036464 
      7.592542942398 
      7.602697834238 
      7.584445664217 
      7.592541130661 
      7.602696610328 
      7.584445841722 
      7.592540485250 
      7.602695860588 
      7.602405915591 
      7.613069321079 
      7.623261870882 
      7.602405749193 
      7.613071440229 
      7.623260852612 
      7.602405509101 
      7.613072424349 
      7.623260248185 
      7.623048653037 
      7.632127664755 
      7.638853867375 
      7.623046462020 
      7.632125709778 
      7.638859255491 
      7.623045286835 
      7.632125010781 
      7.638861756286 
      7.638753770019 
      7.643333688091 
      7.644593038799 
      7.638758454003 
      7.643333761028 
      7.644587260273 
      7.638760594284 
      7.643333710916 
      7.644584384986 
      7.644591819552 
      7.643372408457 
      7.638834965017 
      7.644588934660 
      7.643374772464 
      7.638830730355 
      7.644587041986 
      7.643376706364 
      7.638829702570 
      7.638935132839 
      7.632250033142 
      7.623184007763 
      7.638929105771 
      7.632241870161 
      7.623188777813 
      7.638926416382 
      7.632237075260 
      7.623194233037 
      7.623396306239 
      7.613157010656 
      7.602435026781 
      7.623399628153 
      7.613170550032 
      7.602448527073 
      7.623402560323 
      7.613173745304 
      7.602457349411 
      7.602732507484 
      7.592556916997 
      7.584445327279 
      7.602743725657 
      7.592560536398 
      7.584459898103 
      7.602750086594 
      7.592564561930 
      7.584456763568 
      7.584587862974 
      7.579003294354 
      7.577143709251 
      7.584619299974 
      7.578964579774 
      7.577265991617 
      7.584588232643 
      7.578975691569 
      7.577159777247 
SCALARS  HU  double
LOOKUP_TABLE default
     -0.001282648136 
      0.244147437576 
      0.466157496231 
     -0.001636635121 
      0.244458853460 
      0.465803075734 
     -0.001301270036 
      0.244384530857 
      0.466013822795 
      0.464512891932 
      0.644363389108 
      0.765847146826 
      0.464657069066 
      0.644333054335 
      0.765794996046 
      0.464609215511 
      0.644375064454 
      0.765773895273 
      0.764977618902 
      0.811377464706 
      0.780880241215 
      0.764956423617 
      0.811391374527 
      0.780873316079 
      0.764920370822 
      0.811414378646 
      0.780876049988 
      0.781651203472 
      0.669404009426 
      0.490194167837 
      0.781660930294 
      0.669386099821 
      0.490191143063 
      0.781648327716 
      0.669338111809 
      0.490199974136 
      0.492341278077 
      0.258352107037 
     -0.002225108942 
      0.492357233041 
      0.258367456122 
     -0.002238158192 
      0.492386122822 
      0.258398650379 
     -0.002261777778 
      0.000422274544 
     -0.260049222669 
     -0.493703750553 
      0.000404613104 
     -0.260055488592 
     -0.493694885671 
      0.000357253529 
     -0.260068430978 
     -0.493667880447 
     -0.491549985174 
     -0.670466818632 
     -0.782725539832 
     -0.491533605827 
     -0.670466116378 
     -0.782731960269 
     -0.491493453662 
     -0.670467424423 
     -0.782744749509 
     -0.781895302242 
     -0.812157542100 
     -0.765115816785 
     -0.781902156708 
     -0.812155455816 
     -0.765118585970 
     -0.781915054057 
     -0.812151489701 
     -0.765124362663 
     -0.766011800957 
     -0.644284704251 
     -0.464470849796 
     -0.766015179068 
     -0.644282143038 
     -0.464464658818 
     -0.766021047241 
     -0.644274257820 
     -0.464457822605 
     -0.466595273174 
     -0.243756616510 
      0.000399994551 
     -0.466592952481 
     -0.243770250580 
      0.000402693783 
     -0.466593838886 
     -0.243799608237 
      0.000410985149 
     -0.002179799370 
      0.242162319756 
      0.465382727124 
     -0.002166750821 
      0.242187915234 
      0.465353733135 
     -0.002147343865 
      0.242240430329 
      0.465315224941 
      0.463228326732 
      0.643386590382 
      0.765254527247 
      0.463207345827 
      0.643360787922 
      0.765286382678 
      0.463167640168 
      0.643312200330 
      0.765320695946 
      0.764383343359 
      0.811400698377 
      0.781383647686 
      0.764401069561 
      0.811432087696 
      0.781382640187 
      0.764414878134 
      0.811491093689 
      0.781446091218 
      0.782227157511 
      0.670239703659 
      0.491513264379 
      0.782232144765 
      0.670269007534 
      0.491447073837 
      0.782284332121 
      0.670294385433 
      0.491415280786 
      0.493067047783 
      0.260415401851 
     -0.001607791222 
      0.492981985893 
      0.260503686063 
     -0.001563924795 
      0.492909291345 
      0.260437558303 
     -0.001319090087 
     -0.001040854645 
      0.244353007774 
      0.466107803638 
     -0.001528246706 
      0.244187335742 
      0.466174129411 
     -0.001425402977 
      0.244206258675 
      0.466112147180 
      0.464536020135 
      0.644354221951 
      0.765762643875 
      0.464610605725 
      0.644369592854 
      0.765791338881 
      0.464733832259 
      0.644333439499 
      0.765769274098 
      0.764908965481 
      0.811417589123 
      0.780877794823 
      0.764918519466 
      0.811408606875 
      0.780877575625 
      0.764932385960 
      0.811381068634 
      0.780889188592 
      0.781652106428 
      0.669340653500 
      0.490193795116 
      0.781655453336 
      0.669316924396 
      0.490186966704 
      0.781702348383 
      0.669337065179 
      0.490147272814 
      0.492376432570 
      0.258398729806 
     -0.002257185679 
      0.492385269824 
      0.258401788378 
     -0.002276575709 
      0.492337483658 
      0.258368031166 
     -0.002271958582 
      0.000362697066 
     -0.260068547411 
     -0.493670380660 
      0.000332289795 
     -0.260063189547 
     -0.493650632360 
      0.000344807995 
     -0.260039703912 
     -0.493646661421 
     -0.491496932911 
     -0.670466729498 
     -0.782743669276 
     -0.491468293294 
     -0.670471711714 
     -0.782752390617 
     -0.491461877208 
     -0.670480176683 
     -0.782751845462 
     -0.781914506176 
     -0.812152151943 
     -0.765124370153 
     -0.781924327811 
     -0.812150227480 
     -0.765124883835 
     -0.781925008205 
     -0.812152199517 
     -0.765123077887 
     -0.766020579293 
     -0.644273978340 
     -0.464459579091 
     -0.766023732775 
     -0.644265388407 
     -0.464463202212 
     -0.766022860505 
     -0.644254355926 
     -0.464485124140 
     -0.466595403663 
     -0.243798188097 
      0.000416854045 
     -0.466602399759 
     -0.243823113814 
      0.000429294387 
     -0.466620260981 
     -0.243837244309 
      0.000444575765 
     -0.002144764125 
      0.242234272340 
      0.465317003195 
     -0.002130715448 
      0.242266234095 
      0.465348108581 
     -0.002123695216 
      0.242277495937 
      0.465401045983 
      0.463171935771 
      0.643317041461 
      0.765320455182 
      0.463208078358 
      0.643307796942 
      0.765212885188 
      0.463261309687 
      0.643341185647 
      0.765135585908 
      0.764418502797 
      0.811490123683 
      0.781421420441 
      0.764341034792 
      0.811508333696 
      0.781553188276 
      0.764270936689 
      0.811450059118 
      0.781591238838 
      0.782264884355 
      0.670278382454 
      0.491324968276 
      0.782343324021 
      0.670331468062 
      0.491435738214 
      0.782350005710 
      0.670295706075 
      0.491449804073 
      0.492891523859 
      0.260461825256 
     -0.001486263036 
      0.492875865111 
      0.260386539181 
     -0.001591315741 
      0.492904714231 
      0.260246701336 
     -0.001117283576 
     -0.001260726468 
      0.244223183978 
      0.466140066638 
     -0.001297620103 
      0.244272829985 
      0.465993005814 
     -0.002768602028 
      0.244241781164 
      0.466174847620 
      0.464792987527 
      0.644355243605 
      0.765758012528 
      0.464758760692 
      0.644312053115 
      0.765763229691 
      0.464751679146 
      0.644256006513 
      0.765825492092 
      0.764934484232 
      0.811382260171 
      0.780875045183 
      0.764896621066 
      0.811350848159 
      0.780925999069 
      0.764944706637 
      0.811325376558 
      0.780956612924 
      0.781686999029 
      0.669339481512 
      0.490155294977 
      0.781750007666 
      0.669378772807 
      0.490108622867 
      0.781799345280 
      0.669391217034 
      0.490091996050 
      0.492348326058 
      0.258368164787 
     -0.002275834249 
      0.492266945989 
      0.258318327395 
     -0.002251936037 
      0.492245897222 
      0.258294415154 
     -0.002239187433 
      0.000339473249 
     -0.260040096709 
     -0.493645046151 
      0.000375947068 
     -0.260013740815 
     -0.493648097744 
      0.000399570721 
     -0.260003558957 
     -0.493650879745 
     -0.491460515592 
     -0.670479971521 
     -0.782752978907 
     -0.491464898170 
     -0.670489643119 
     -0.782745087858 
     -0.491465874528 
     -0.670493545682 
     -0.782741599991 
     -0.781926267191 
     -0.812151741718 
     -0.765121879920 
     -0.781918988657 
     -0.812156695393 
     -0.765123085223 
     -0.781915593482 
     -0.812159199781 
     -0.765122898936 
     -0.766022495610 
     -0.644255944570 
     -0.464483406958 
     -0.766019185949 
     -0.644240928578 
     -0.464520696811 
     -0.766017097977 
     -0.644235226559 
     -0.464537835836 
     -0.466618457294 
     -0.243836396151 
      0.000440491706 
     -0.466648822609 
     -0.243842170276 
      0.000487110164 
     -0.466661428937 
     -0.243843994098 
      0.000510999662 
     -0.002126204250 
      0.242279407617 
      0.465404631303 
     -0.002106712138 
      0.242262885939 
      0.465430204473 
     -0.002093239014 
      0.242249958860 
      0.465435149586 
      0.463261647062 
      0.643334432429 
      0.765135537316 
      0.463303573846 
      0.643396049434 
      0.765101973688 
      0.463329570926 
      0.643424794839 
      0.765072953203 
      0.764268385075 
      0.811454981686 
      0.781593492686 
      0.764245040168 
      0.811376394370 
      0.781524417967 
      0.764242320144 
      0.811359696516 
      0.781486466852 
      0.782356259105 
      0.670331087349 
      0.491478002459 
      0.782307260348 
      0.670328875609 
      0.491350089871 
      0.782290530766 
      0.670300262368 
      0.491385936346 
      0.492938192865 
      0.260261063278 
     -0.001440037773 
      0.492918368968 
      0.260403239658 
     -0.001380440925 
      0.492905704866 
      0.260393009469 
     -0.001432671925 
SCALARS  HV  double
LOOKUP_TABLE default
     -0.000454665962 
      0.000049220156 
     -0.000137308494 
     -0.000445479780 
      0.000049926782 
     -0.000223723089 
      0.000567635234 
     -0.000038225193 
      0.000202681697 
     -0.000068533771 
      0.000020666931 
      0.000009720238 
     -0.000004545323 
      0.000026023338 
      0.000003335377 
      0.000014727080 
      0.000010507111 
      0.000035374061 
      0.000001334465 
     -0.000001634620 
     -0.000008130686 
     -0.000004633214 
      0.000011015377 
      0.000023126660 
      0.000024619136 
      0.000025757528 
      0.000043875488 
     -0.000006601337 
      0.000005381104 
     -0.000003557027 
      0.000032913858 
     -0.000004064002 
     -0.000022150525 
      0.000054175926 
      0.000004282131 
     -0.000025594418 
     -0.000004269576 
     -0.000001710175 
     -0.000000431529 
     -0.000027689822 
      0.000008691858 
      0.000012995804 
     -0.000033886483 
      0.000002813985 
      0.000014009832 
     -0.000000009280 
      0.000001499625 
     -0.000001807387 
      0.000013559952 
     -0.000010938936 
     -0.000006137336 
      0.000015432367 
     -0.000014394198 
     -0.000007366637 
     -0.000002054928 
     -0.000000152994 
      0.000000879403 
     -0.000003929471 
      0.000006454596 
     -0.000000708269 
     -0.000004136272 
      0.000008226727 
      0.000000085186 
      0.000000755914 
     -0.000000111167 
     -0.000000094269 
     -0.000003113505 
     -0.000001364583 
     -0.000000418238 
     -0.000003344583 
     -0.000002245070 
     -0.000003235956 
      0.000000058729 
      0.000000009744 
      0.000000863393 
     -0.000000131490 
     -0.000000609655 
      0.000008528534 
     -0.000001707119 
      0.000001231715 
      0.000014068807 
      0.000000552172 
     -0.000000399684 
     -0.000001950309 
      0.000007362313 
     -0.000006070682 
     -0.000028016681 
      0.000010547389 
     -0.000013458447 
     -0.000034361429 
     -0.000001219160 
      0.000004762472 