# vtk DataFile Version 2.0
NDG-FEM NonhydrostaticStandingWave2d Simulation
ASCII
DATASET UNSTRUCTURED_GRID

POINTS 480 double
0.00000000000000000000  0.00000000000000000000  0.00000000000000000000
1.00000000000000000000  0.00000000000000000000  0.00000000000000000000
2.00000000000000000000  0.00000000000000000000  0.00000000000000000000
0.00000000000000000000  1.00000000000000000000  0.00000000000000000000
1.00000000000000000000  1.00000000000000000000  0.00000000000000000000
0.00000000000000000000  2.00000000000000000000  0.00000000000000000000
2.00000000000000000000  0.00000000000000000000  0.00000000000000000000
3.00000000000000000000  0.00000000000000000000  0.00000000000000000000
4.00000000000000000000  0.00000000000000000000  0.00000000000000000000
2.00000000000000000000  1.00000000000000000000  0.00000000000000000000
3.00000000000000000000  1.00000000000000000000  0.00000000000000000000
2.00000000000000000000  2.00000000000000000000  0.00000000000000000000
4.00000000000000000000  0.00000000000000000000  0.00000000000000000000
5.00000000000000000000  0.00000000000000000000  0.00000000000000000000
6.00000000000000000000  0.00000000000000000000  0.00000000000000000000
4.00000000000000000000  1.00000000000000000000  0.00000000000000000000
5.00000000000000000000  1.00000000000000000000  0.00000000000000000000
4.00000000000000000000  2.00000000000000000000  0.00000000000000000000
6.00000000000000000000  0.00000000000000000000  0.00000000000000000000
7.00000000000000000000  0.00000000000000000000  0.00000000000000000000
8.00000000000000000000  0.00000000000000000000  0.00000000000000000000
6.00000000000000000000  1.00000000000000000000  0.00000000000000000000
7.00000000000000000000  1.00000000000000000000  0.00000000000000000000
6.00000000000000000000  2.00000000000000000000  0.00000000000000000000
8.00000000000000000000  0.00000000000000000000  0.00000000000000000000
9.00000000000000000000  0.00000000000000000000  0.00000000000000000000
10.00000000000000000000  0.00000000000000000000  0.00000000000000000000
8.00000000000000000000  1.00000000000000000000  0.00000000000000000000
9.00000000000000000000  1.00000000000000000000  0.00000000000000000000
8.00000000000000000000  2.00000000000000000000  0.00000000000000000000
10.00000000000000000000  0.00000000000000000000  0.00000000000000000000
11.00000000000000000000  0.00000000000000000000  0.00000000000000000000
12.00000000000000000000  0.00000000000000000000  0.00000000000000000000
10.00000000000000000000  1.00000000000000000000  0.00000000000000000000
11.00000000000000000000  1.00000000000000000000  0.00000000000000000000
10.00000000000000000000  2.00000000000000000000  0.00000000000000000000
12.00000000000000000000  0.00000000000000000000  0.00000000000000000000
13.00000000000000000000  0.00000000000000000000  0.00000000000000000000
14.00000000000000000000  0.00000000000000000000  0.00000000000000000000
12.00000000000000000000  1.00000000000000000000  0.00000000000000000000
13.00000000000000000000  1.00000000000000000000  0.00000000000000000000
12.00000000000000000000  2.00000000000000000000  0.00000000000000000000
14.00000000000000000000  0.00000000000000000000  0.00000000000000000000
15.00000000000000000000  0.00000000000000000000  0.00000000000000000000
16.00000000000000000000  0.00000000000000000000  0.00000000000000000000
14.00000000000000000000  1.00000000000000000000  0.00000000000000000000
15.00000000000000000000  1.00000000000000000000  0.00000000000000000000
14.00000000000000000000  2.00000000000000000000  0.00000000000000000000
16.00000000000000000000  0.00000000000000000000  0.00000000000000000000
17.00000000000000000000  0.00000000000000000000  0.00000000000000000000
18.00000000000000000000  0.00000000000000000000  0.00000000000000000000
16.00000000000000000000  1.00000000000000000000  0.00000000000000000000
17.00000000000000000000  1.00000000000000000000  0.00000000000000000000
16.00000000000000000000  2.00000000000000000000  0.00000000000000000000
18.00000000000000000000  0.00000000000000000000  0.00000000000000000000
19.00000000000000000000  0.00000000000000000000  0.00000000000000000000
20.00000000000000000000  0.00000000000000000000  0.00000000000000000000
18.00000000000000000000  1.00000000000000000000  0.00000000000000000000
19.00000000000000000000  1.00000000000000000000  0.00000000000000000000
18.00000000000000000000  2.00000000000000000000  0.00000000000000000000
2.00000000000000000000  0.00000000000000000000  0.00000000000000000000
2.00000000000000000000  1.00000000000000000000  0.00000000000000000000
2.00000000000000000000  2.00000000000000000000  0.00000000000000000000
1.00000000000000000000  1.00000000000000000000  0.00000000000000000000
1.00000000000000000000  2.00000000000000000000  0.00000000000000000000
0.00000000000000000000  2.00000000000000000000  0.00000000000000000000
4.00000000000000000000  0.00000000000000000000  0.00000000000000000000
4.00000000000000000000  1.00000000000000000000  0.00000000000000000000
4.00000000000000000000  2.00000000000000000000  0.00000000000000000000
3.00000000000000000000  1.00000000000000000000  0.00000000000000000000
3.00000000000000000000  2.00000000000000000000  0.00000000000000000000
2.00000000000000000000  2.00000000000000000000  0.00000000000000000000
6.00000000000000000000  0.00000000000000000000  0.00000000000000000000
6.00000000000000000000  1.00000000000000000000  0.00000000000000000000
6.00000000000000000000  2.00000000000000000000  0.00000000000000000000
5.00000000000000000000  1.00000000000000000000  0.00000000000000000000
5.00000000000000000000  2.00000000000000000000  0.00000000000000000000
4.00000000000000000000  2.00000000000000000000  0.00000000000000000000
8.00000000000000000000  0.00000000000000000000  0.00000000000000000000
8.00000000000000000000  1.00000000000000000000  0.00000000000000000000
8.00000000000000000000  2.00000000000000000000  0.00000000000000000000
7.00000000000000000000  1.00000000000000000000  0.00000000000000000000
7.00000000000000000000  2.00000000000000000000  0.00000000000000000000
6.00000000000000000000  2.00000000000000000000  0.00000000000000000000
10.00000000000000000000  0.00000000000000000000  0.00000000000000000000
10.00000000000000000000  1.00000000000000000000  0.00000000000000000000
10.00000000000000000000  2.00000000000000000000  0.00000000000000000000
9.00000000000000000000  1.00000000000000000000  0.00000000000000000000
9.00000000000000000000  2.00000000000000000000  0.00000000000000000000
8.00000000000000000000  2.00000000000000000000  0.00000000000000000000
12.00000000000000000000  0.00000000000000000000  0.00000000000000000000
12.00000000000000000000  1.00000000000000000000  0.00000000000000000000
12.00000000000000000000  2.00000000000000000000  0.00000000000000000000
11.00000000000000000000  1.00000000000000000000  0.00000000000000000000
11.00000000000000000000  2.00000000000000000000  0.00000000000000000000
10.00000000000000000000  2.00000000000000000000  0.00000000000000000000
14.00000000000000000000  0.00000000000000000000  0.00000000000000000000
14.00000000000000000000  1.00000000000000000000  0.00000000000000000000
14.00000000000000000000  2.00000000000000000000  0.00000000000000000000
13.00000000000000000000  1.00000000000000000000  0.00000000000000000000
13.00000000000000000000  2.00000000000000000000  0.00000000000000000000
12.00000000000000000000  2.00000000000000000000  0.00000000000000000000
16.00000000000000000000  0.00000000000000000000  0.00000000000000000000
16.00000000000000000000  1.00000000000000000000  0.00000000000000000000
16.00000000000000000000  2.00000000000000000000  0.00000000000000000000
15.00000000000000000000  1.00000000000000000000  0.00000000000000000000
15.00000000000000000000  2.00000000000000000000  0.00000000000000000000
14.00000000000000000000  2.00000000000000000000  0.00000000000000000000
18.00000000000000000000  0.00000000000000000000  0.00000000000000000000
18.00000000000000000000  1.00000000000000000000  0.00000000000000000000
18.00000000000000000000  2.00000000000000000000  0.00000000000000000000
17.00000000000000000000  1.00000000000000000000  0.00000000000000000000
17.00000000000000000000  2.00000000000000000000  0.00000000000000000000
16.00000000000000000000  2.00000000000000000000  0.00000000000000000000
20.00000000000000000000  0.00000000000000000000  0.00000000000000000000
20.00000000000000000000  1.00000000000000000000  0.00000000000000000000
20.00000000000000000000  2.00000000000000000000  0.00000000000000000000
19.00000000000000000000  1.00000000000000000000  0.00000000000000000000
19.00000000000000000000  2.00000000000000000000  0.00000000000000000000
18.00000000000000000000  2.00000000000000000000  0.00000000000000000000
0.00000000000000000000  2.00000000000000000000  0.00000000000000000000
1.00000000000000000000  2.00000000000000000000  0.00000000000000000000
2.00000000000000000000  2.00000000000000000000  0.00000000000000000000
0.00000000000000000000  3.00000000000000000000  0.00000000000000000000
1.00000000000000000000  3.00000000000000000000  0.00000000000000000000
0.00000000000000000000  4.00000000000000000000  0.00000000000000000000
2.00000000000000000000  2.00000000000000000000  0.00000000000000000000
3.00000000000000000000  2.00000000000000000000  0.00000000000000000000
4.00000000000000000000  2.00000000000000000000  0.00000000000000000000
2.00000000000000000000  3.00000000000000000000  0.00000000000000000000
3.00000000000000000000  3.00000000000000000000  0.00000000000000000000
2.00000000000000000000  4.00000000000000000000  0.00000000000000000000
4.00000000000000000000  2.00000000000000000000  0.00000000000000000000
5.00000000000000000000  2.00000000000000000000  0.00000000000000000000
6.00000000000000000000  2.00000000000000000000  0.00000000000000000000
4.00000000000000000000  3.00000000000000000000  0.00000000000000000000
5.00000000000000000000  3.00000000000000000000  0.00000000000000000000
4.00000000000000000000  4.00000000000000000000  0.00000000000000000000
[...]
POINT_DATA 480
SCALARS  H  double
LOOKUP_TABLE default
      7.625212401683 
      7.624634089107 
      7.622286155931 
      7.625150523136 
      7.624552076569 
      7.624980776063 
      7.622185927736 
      7.619312679278 
      7.615203078932 
      7.622373888358 
      7.619195241102 
      7.622326284059 
      7.615156236540 
      7.611413916860 
      7.607519029671 
      7.615312400998 
      7.611352895374 
      7.615282700903 
      7.607533963016 
      7.604367023169 
      7.602111002338 
      7.607548803371 
      7.604399598937 
      7.607529319698 
      7.602171467711 
      7.600403501899 
      7.600261730087 
      7.602019654136 
      7.600531737086 
      7.602013074233 
      7.600329553356 
      7.600382743983 
      7.602198002367 
      7.600077124777 
      7.600537898299 
      7.600080650213 
      7.602264957030 
      7.604308742088 
      7.607651659934 
      7.602006284753 
      7.604442077957 
      7.602025137161 
      7.607689384272 
      7.611353151731 
      7.615317514267 
      7.607531403324 
      7.611407176082 
      7.607557095887 
      7.615319080425 
      7.619275430123 
      7.622292830137 
      7.615307772738 
      7.619239176391 
      7.615324577312 
      7.622245470004 
      7.624656112431 
      7.624520040338 
      7.622351676382 
      7.624567997667 
      7.622335382097 
      7.622218965979 
      7.622399221236 
      7.622367170657 
      7.624552311791 
      7.624547621541 
      7.625034530597 
      7.615181139929 
      7.615345280534 
      7.615326256681 
      7.619201400273 
      7.619216418538 
      7.622356790953 
      7.607541197040 
      7.607569112930 
      7.607555044473 
      7.611357146557 
      7.611380244831 
      7.615297645969 
      7.602164427740 
      7.602023749478 
      7.602017271612 
      7.604400283504 
      7.604418018474 
      7.607523471601 
      7.600312451334 
      7.600061154088 
      7.600086867935 
      7.600526942425 
      7.600524617282 
      7.601985292236 
      7.602237948515 
      7.601988792044 
      7.602015095733 
      7.600549414352 
      7.600527262026 
      7.600023515602 
      7.607664988353 
      7.607508889307 
      7.607527745578 
      7.604451360754 
      7.604419916216 
      7.601971407013 
      7.615301353395 
      7.615283476905 
      7.615281680332 
      7.611409193545 
      7.611384787376 
      7.607541585598 
      7.622251025576 
      7.622342456749 
      7.622303838293 
      7.619234196205 
      7.619230105055 
      7.615349826634 
      7.624449243656 
      7.625111616930 
      7.624927476152 
      7.624553142199 
      7.624516719766 
      7.622390780352 
      7.624995558097 
      7.624541977442 
      7.622405860608 
      7.625105197598 
      7.624564248148 
      7.624915157920 
      7.622332310904 
      7.619211482116 
      7.615349984345 
      7.622398201782 
      7.619226850740 
      7.622327063337 
      7.615289057390 
      7.611377626158 
      7.607543877843 
      7.615311432548 
      7.611381570731 
      7.615294437979 
      7.607532521461 
      7.604415389069 
      7.601977100806 
      7.607519412171 
      7.604410046689 
      7.607534482120 
      7.602011863149 
      7.600528840509 
      7.600034201577 
      7.601973617913 
      7.600513641286 
      7.602007872698 
      7.600064184251 
      7.600525759593 
      7.601989747512 
      7.600030321741 
      7.600507372528 
      7.600064812384 
      7.602006438230 
      7.604419117999 
      7.607528907042 
      7.601980370491 
      7.604407068673 
      7.602013343922 
      7.607552178408 
      7.611385982065 
      7.615299733257 
      7.607534746840 
      7.611383032427 
      7.607546419180 
      7.615330346436 
      7.619231297163 
      7.622339123104 
      7.615333597933 
      7.619227898961 
      7.615322078585 
      7.622360999016 
      7.624522878038 
      7.624945377605 
      7.622425988562 
      7.624574881874 
      7.622348298059 
      7.622352283660 
      7.622422360771 
      7.622372097103 
      7.624567086567 
      7.624547323103 
      7.624975996369 
      7.615321704534 
      7.615339674304 
      7.615338274689 
      7.619230151813 
      7.619217750384 
      7.622352138306 
      7.607556819141 
      7.607537177604 
      7.607549425070 
      7.611381788357 
      7.611383265028 
      7.615304454944 
      7.602026798563 
      7.601979153526 
      7.601997151146 
      7.604407398078 
      7.604418896992 
      7.607525491092 
      7.600078035350 
      7.600027186904 
      7.600054965616 
      7.600508563214 
      7.600525400162 
      7.601979565200 
      7.602015283748 
      7.601971156368 
      7.601997865401 
      7.600514830231 
      7.600528235545 
      7.600017537453 
      7.607534994456 
      7.607516038396 
      7.607522480945 
      7.604411314115 
      7.604419714686 
      7.601963533088 
      7.615287314271 
      7.615307495857 
      7.615289561904 
      7.611382850422 
      7.611383460040 
      7.607535037824 
      7.622311906993 
      7.622402904690 
      7.622328934415 
      7.619222929250 
      7.619217443415 
      7.615352196764 
      7.624885600227 
      7.625099039494 
      7.624958705725 
      7.624570186657 
      7.624541723224 
      7.622400417799 
      7.624958705725 
      7.624541723224 
      7.622400417799 
      7.625099039494 
      7.624570186657 
      7.624885600227 
      7.622328934415 
      7.619217443415 
      7.615352196764 
      7.622402904690 
      7.619222929250 
      7.622311906993 
      7.615289561904 
      7.611383460040 
      7.607535037824 
      7.615307495857 
      7.611382850422 
      7.615287314271 
      7.607522480945 
      7.604419714686 
      7.601963533088 
      7.607516038396 
      7.604411314115 
      7.607534994456 
      7.601997865401 
      7.600528235545 
      7.600017537453 
      7.601971156368 
      7.600514830231 
      7.602015283748 
      7.600054965616 
      7.600525400162 
      7.601979565200 
      7.600027186904 
      7.600508563214 
      7.600078035350 
      7.601997151146 
      7.604418896992 
      7.607525491092 
      7.601979153526 
      7.604407398078 
      7.602026798563 
      7.607549425070 
      7.611383265028 
      7.615304454944 
      7.607537177604 
      7.611381788357 
      7.607556819141 
      7.615338274689 
      7.619217750384 
      7.622352138306 
      7.615339674304 
      7.619230151813 
      7.615321704534 
      7.622372097103 
      7.624547323103 
      7.624975996369 
      7.622422360771 
      7.624567086567 
      7.622352283660 
      7.622348298059 
      7.622425988562 
      7.622360999016 
      7.624574881874 
      7.624522878038 
      7.624945377605 
      7.615322078585 
      7.615333597933 
      7.615330346436 
      7.619227898961 
      7.619231297163 
      7.622339123104 
      7.607546419180 
      7.607534746840 
      7.607552178408 
      7.611383032427 
      7.611385982065 
      7.615299733257 
      7.602013343922 
      7.601980370491 
      7.602006438230 
      7.604407068673 
      7.604419117999 
      7.607528907042 
      7.600064812384 
      7.600030321741 
      7.600064184251 
      7.600507372528 
      7.600525759593 
      7.601989747512 
      7.602007872698 
      7.601973617913 
      7.602011863149 
      7.600513641286 
      7.600528840509 
      7.600034201577 
      7.607534482120 
      7.607519412171 
      7.607532521461 
      7.604410046689 
      7.604415389069 
      7.601977100806 
      7.615294437979 
      7.615311432548 
      7.615289057390 
      7.611381570731 
      7.611377626158 
      7.607543877843 
      7.622327063337 
      7.622398201782 
      7.622332310904 
      7.619226850740 
      7.619211482116 
      7.615349984345 
      7.624915157920 
      7.625105197598 
      7.624995558097 
      7.624564248148 
      7.624541977442 
      7.622405860608 
      7.624927476152 
      7.624516719766 
      7.622390780352 
      7.625111616930 
      7.624553142199 
      7.624449243656 
      7.622303838293 
      7.619230105055 
      7.615349826634 
      7.622342456749 
      7.619234196205 
      7.622251025576 
      7.615281680332 
      7.611384787376 
      7.607541585598 
      7.615283476905 
      7.611409193545 
      7.615301353395 
      7.607527745578 
      7.604419916216 
      7.601971407013 
      7.607508889307 
      7.604451360754 
      7.607664988353 
      7.602015095733 
      7.600527262026 
      7.600023515602 
      7.601988792044 
      7.600549414352 
      7.602237948515 
      7.600086867935 
      7.600524617282 
      7.601985292236 
      7.600061154088 
      7.600526942425 
      7.600312451334 
      7.602017271612 
      7.604418018474 
      7.607523471601 
      7.602023749478 
      7.604400283504 
      7.602164427740 
      7.607555044473 
      7.611380244831 
      7.615297645969 
      7.607569112930 
      7.611357146557 
      7.607541197040 
      7.615326256681 
      7.619216418538 
      7.622356790953 
      7.615345280534 
      7.619201400273 
      7.615181139929 
      7.622367170657 
      7.624547621541 
      7.625034530597 
      7.622399221236 
      7.624552311791 
      7.622218965979 
      7.622335382097 
      7.622351676382 
      7.622245470004 
      7.624567997667 
      7.624656112431 
      7.624520040338 
      7.615324577312 
      7.615307772738 
      7.615319080425 
      7.619239176391 
      7.619275430123 
      7.622292830137 
      7.607557095887 
      7.607531403324 
      7.607689384272 
      7.611407176082 
      7.611353151731 
      7.615317514267 
      7.602025137161 
      7.602006284753 
      7.602264957030 
      7.604442077957 
      7.604308742088 
      7.607651659934 
      7.600080650213 
      7.600077124777 
      7.600329553356 
      7.600537898299 
      7.600382743983 
      7.602198002367 
      7.602013074233 
      7.602019654136 
      7.602171467711 
      7.600531737086 
      7.600403501899 
      7.600261730087 
      7.607529319698 
      7.607548803371 
      7.607533963016 
      7.604399598937 
      7.604367023169 
      7.602111002338 
      7.615282700903 
      7.615312400998 
      7.615156236540 
      7.611352895374 
      7.611413916860 
      7.607519029671 
      7.622326284059 
      7.622373888358 
      7.622185927736 
      7.619195241102 
      7.619312679278 
      7.615203078932 
      7.624980776063 
      7.625150523136 
      7.625212401683 
      7.624552076569 
      7.624634089107 
      7.622286155931 
SCALARS  HU  double
LOOKUP_TABLE default
      0.000531168078 
     -0.169960221466 
     -0.329010371268 
      0.000453048478 
     -0.171905524659 
      0.000671354517 
     -0.326500130028 
     -0.446909388754 
     -0.526432288802 
     -0.324964134711 
     -0.447286095266 
     -0.325933790879 
     -0.525294867543 
     -0.549815475457 
     -0.521054058184 
     -0.523848200056 
     -0.549222105448 
     -0.524941920138 
     -0.521814164691 
     -0.442729262411 
     -0.318383189241 
     -0.521019286100 
     -0.441456938518 
     -0.521833923795 
     -0.320746738837 
     -0.169188654682 
      0.003180776161 
     -0.320900113703 
     -0.167765453665 
     -0.321122472351 
      0.000336384653 
      0.167296054469 
      0.323573633940 
     -0.000827014973 
      0.168468694104 
     -0.000417370955 
      0.321170114703 
      0.441524347327 
      0.522918463254 
      0.319576376678 
      0.441909902135 
      0.320369004966 
      0.521949088944 
      0.549797151983 
      0.524300982714 
      0.520534502410 
      0.549211532798 
      0.521523270670 
      0.525088303195 
      0.448131847760 
      0.323789943008 
      0.524377659620 
      0.446790368230 
      0.525198714675 
      0.326079913512 
      0.172792701694 
     -0.002723561032 
      0.326223837928 
      0.170927870326 
      0.326744522492 
     -0.327458255759 
     -0.325727713451 
     -0.327157383753 
     -0.172388928360 
     -0.171692356629 
      0.001983725018 
     -0.525573011341 
     -0.524154396810 
     -0.525413416965 
     -0.447614382596 
     -0.447603345420 
     -0.325098805301 
     -0.521270146024 
     -0.520724408663 
     -0.521355619962 
     -0.549224992514 
     -0.549758033961 
     -0.524965088718 
     -0.319570407694 
     -0.320107301668 
     -0.319894018045 
     -0.441138472731 
     -0.442002501097 
     -0.522677988591 
      0.001478887695 
      0.000189155402 
      0.001060242970 
     -0.167253179892 
     -0.168073810902 
     -0.322478387797 
      0.322023372248 
      0.320336401135 
      0.321653724456 
      0.168979268620 
      0.168437076225 
     -0.001743047418 
      0.522143288182 
      0.520795344687 
      0.521988575391 
      0.442206089196 
      0.442220218524 
      0.319611909765 
      0.524550085063 
      0.524034921013 
      0.524689400348 
      0.549196944990 
      0.549753535759 
      0.521601100847 
      0.325005485332 
      0.325420586226 
      0.325391544214 
      0.446462067122 
      0.447387124778 
      0.526106776118 
     -0.000929163250 
     -0.000526918228 
     -0.000939494333 
      0.170371057468 
      0.171298762043 
      0.328211540797 
      0.000824759174 
     -0.171068736445 
     -0.328428221237 
      0.000524027922 
     -0.171174207458 
      0.000793804258 
     -0.325875807181 
     -0.447188640226 
     -0.526257097389 
     -0.325113287612 
     -0.447045245723 
     -0.325631541989 
     -0.524978066124 
     -0.549734178016 
     -0.521421063521 
     -0.523850996816 
     -0.549401899245 
     -0.524822426018 
     -0.521923764946 
     -0.442375409224 
     -0.319167808433 
     -0.520833300542 
     -0.441974543381 
     -0.521970143336 
     -0.321253925359 
     -0.168692131622 
      0.002248187427 
     -0.320618379704 
     -0.168409381154 
     -0.321452267352 
     -0.000456552740 
      0.167798643084 
      0.322860346281 
     -0.000597703428 
      0.167948460473 
     -0.000781903419 
      0.320442348380 
      0.441817044423 
      0.522741086862 
      0.319696502593 
      0.441698664387 
      0.320086942681 
      0.521643517239 
      0.549737303891 
      0.524734672350 
      0.520497529992 
      0.549404921863 
      0.521455567748 
      0.525320681348 
      0.447767980465 
      0.324668408950 
      0.524205342644 
      0.447316786493 
      0.525367844140 
      0.326772443246 
      0.172015035005 
     -0.002230054665 
      0.326036546883 
      0.171632943708 
      0.327009228847 
     -0.327067741651 
     -0.326025260514 
     -0.326889252931 
     -0.171759135816 
     -0.171928649869 
      0.002195610139 
     -0.525415911982 
     -0.524238889803 
     -0.525354759476 
     -0.447400693565 
     -0.447682329946 
     -0.324793512296 
     -0.521424440063 
     -0.520540147626 
     -0.521567128548 
     -0.549406950880 
     -0.549717309933 
     -0.524794577442 
     -0.319978857853 
     -0.319738616131 
     -0.320275752121 
     -0.441638446328 
     -0.441854146924 
     -0.522710912911 
      0.000914900888 
      0.000568670977 
      0.000633850643 
     -0.167854103850 
     -0.167869877871 
     -0.322742268959 
      0.321561492119 
      0.320613367218 
      0.321371332460 
      0.168501841854 
      0.168599443999 
     -0.002081832126 
      0.522010418674 
      0.520853660739 
      0.521923106779 
      0.442029432530 
      0.442302862711 
      0.319315535563 
      0.524791964788 
      0.523881247895 
      0.524872125255 
      0.549392550118 
      0.549712066408 
      0.521485273746 
      0.325524251762 
      0.325130693203 
      0.325721504204 
      0.446962112287 
      0.447216052907 
      0.526222944239 
     -0.000797538542 
     -0.000562139526 
     -0.000875570511 
      0.171037344472 
      0.171178064345 
      0.328382056381 
      0.000875570511 
     -0.171178064345 
     -0.328382056381 
      0.000562139526 
     -0.171037344472 
      0.000797538542 
     -0.325721504204 
     -0.447216052907 
     -0.526222944239 
     -0.325130693203 
     -0.446962112287 
     -0.325524251762 
     -0.524872125255 
     -0.549712066408 
     -0.521485273746 
     -0.523881247895 
     -0.549392550118 
     -0.524791964788 
     -0.521923106779 
     -0.442302862711 
     -0.319315535563 
     -0.520853660739 
     -0.442029432530 
     -0.522010418674 
     -0.321371332460 
     -0.168599443999 
      0.002081832126 
     -0.320613367218 
     -0.168501841854 
     -0.321561492119 
     -0.000633850643 
      0.167869877871 
      0.322742268959 
     -0.000568670977 
      0.167854103850 
     -0.000914900888 
      0.320275752121 
      0.441854146924 
      0.522710912911 
      0.319738616131 
      0.441638446328 
      0.319978857853 
      0.521567128548 
      0.549717309933 
      0.524794577442 
      0.520540147626 
      0.549406950880 
      0.521424440063 
      0.525354759476 
      0.447682329946 
      0.324793512296 
      0.524238889803 
      0.447400693565 
      0.525415911982 
      0.326889252931 
      0.171928649869 
     -0.002195610139 
      0.326025260514 
      0.171759135816 
      0.327067741651 
     -0.327009228847 
     -0.326036546883 
     -0.326772443246 
     -0.171632943708 
     -0.172015035005 
      0.002230054665 
     -0.525367844140 
     -0.524205342644 
     -0.525320681348 
     -0.447316786493 
     -0.447767980465 
     -0.324668408950 
     -0.521455567748 
     -0.520497529992 
     -0.521643517239 
     -0.549404921863 
     -0.549737303891 
     -0.524734672350 
     -0.320086942681 
     -0.319696502593 
     -0.320442348380 
     -0.441698664387 
     -0.441817044423 
     -0.522741086862 
      0.000781903419 
      0.000597703428 
      0.000456552740 
     -0.167948460473 
     -0.167798643084 
     -0.322860346281 
      0.321452267352 
      0.320618379704 
      0.321253925359 
      0.168409381154 
      0.168692131622 
     -0.002248187427 
      0.521970143336 
      0.520833300542 
      0.521923764946 
      0.441974543381 
      0.442375409224 
      0.319167808433 
      0.524822426018 
      0.523850996816 
      0.524978066124 
      0.549401899245 
      0.549734178016 
      0.521421063521 
      0.325631541989 
      0.325113287612 
      0.325875807181 
      0.447045245723 
      0.447188640226 
      0.526257097389 
     -0.000793804258 
     -0.000524027922 
     -0.000824759174 
      0.171174207458 
      0.171068736445 
      0.328428221237 
      0.000939494333 
     -0.171298762043 
     -0.328211540797 
      0.000526918228 
     -0.170371057468 
      0.000929163250 
     -0.325391544214 
     -0.447387124778 
     -0.526106776118 
     -0.325420586226 
     -0.446462067122 
     -0.325005485332 
     -0.524689400348 
     -0.549753535759 
     -0.521601100847 
     -0.524034921013 
     -0.549196944990 
     -0.524550085063 
     -0.521988575391 
     -0.442220218524 
     -0.319611909765 
     -0.520795344687 
     -0.442206089196 
     -0.522143288182 
     -0.321653724456 
     -0.168437076225 
      0.001743047418 
     -0.320336401135 
     -0.168979268620 
     -0.322023372248 
     -0.001060242970 
      0.168073810902 
      0.322478387797 
     -0.000189155402 
      0.167253179892 
     -0.001478887695 
      0.319894018045 
      0.442002501097 
      0.522677988591 
      0.320107301668 
      0.441138472731 
      0.319570407694 
      0.521355619962 
      0.549758033961 
      0.524965088718 
      0.520724408663 
      0.549224992514 
      0.521270146024 
      0.525413416965 
      0.447603345420 
      0.325098805301 
      0.524154396810 
      0.447614382596 
      0.525573011341 
      0.327157383753 
      0.171692356629 
     -0.001983725018 
      0.325727713451 
      0.172388928360 
      0.327458255759 
     -0.326744522492 
     -0.326223837928 
     -0.326079913512 
     -0.170927870326 