# vtk DataFile Version 2.0
NDG-FEM NonhydrostaticStandingWave2d Simulation
ASCII
DATASET UNSTRUCTURED_GRID

POINTS 480 double
0.00000000000000000000  0.00000000000000000000  0.00000000000000000000
1.00000000000000000000  0.00000000000000000000  0.00000000000000000000
2.00000000000000000000  0.00000000000000000000  0.00000000000000000000
0.00000000000000000000  1.00000000000000000000  0.00000000000000000000
1.00000000000000000000  1.00000000000000000000  0.00000000000000000000
0.00000000000000000000  2.00000000000000000000  0.00000000000000000000
2.00000000000000000000  0.00000000000000000000  0.00000000000000000000
3.00000000000000000000  0.00000000000000000000  0.00000000000000000000
4.00000000000000000000  0.00000000000000000000  0.00000000000000000000
2.00000000000000000000  1.00000000000000000000  0.00000000000000000000
3.00000000000000000000  1.00000000000000000000  0.00000000000000000000
2.00000000000000000000  2.00000000000000000000  0.00000000000000000000
4.00000000000000000000  0.00000000000000000000  0.00000000000000000000
5.00000000000000000000  0.00000000000000000000  0.00000000000000000000
6.00000000000000000000  0.00000000000000000000  0.00000000000000000000
4.00000000000000000000  1.00000000000000000000  0.00000000000000000000
5.00000000000000000000  1.00000000000000000000  0.00000000000000000000
4.00000000000000000000  2.00000000000000000000  0.00000000000000000000
6.00000000000000000000  0.00000000000000000000  0.00000000000000000000
7.00000000000000000000  0.00000000000000000000  0.00000000000000000000
8.00000000000000000000  0.00000000000000000000  0.00000000000000000000
6.00000000000000000000  1.00000000000000000000  0.00000000000000000000
7.00000000000000000000  1.00000000000000000000  0.00000000000000000000
6.00000000000000000000  2.00000000000000000000  0.00000000000000000000
8.00000000000000000000  0.00000000000000000000  0.00000000000000000000
9.00000000000000000000  0.00000000000000000000  0.00000000000000000000
10.00000000000000000000  0.00000000000000000000  0.00000000000000000000
8.00000000000000000000  1.00000000000000000000  0.00000000000000000000
9.00000000000000000000  1.00000000000000000000  0.00000000000000000000
8.00000000000000000000  2.00000000000000000000  0.00000000000000000000
10.00000000000000000000  0.00000000000000000000  0.00000000000000000000
11.00000000000000000000  0.00000000000000000000  0.00000000000000000000
12.00000000000000000000  0.00000000000000000000  0.00000000000000000000
10.00000000000000000000  1.00000000000000000000  0.00000000000000000000
11.00000000000000000000  1.00000000000000000000  0.00000000000000000000
10.00000000000000000000  2.00000000000000000000  0.00000000000000000000
12.00000000000000000000  0.00000000000000000000  0.00000000000000000000
13.00000000000000000000  0.00000000000000000000  0.00000000000000000000
14.00000000000000000000  0.00000000000000000000  0.00000000000000000000
12.00000000000000000000  1.00000000000000000000  0.00000000000000000000
13.00000000000000000000  1.00000000000000000000  0.00000000000000000000
12.00000000000000000000  2.00000000000000000000  0.00000000000000000000
14.00000000000000000000  0.00000000000000000000  0.00000000000000000000
15.00000000000000000000  0.00000000000000000000  0.00000000000000000000
16.00000000000000000000  0.00000000000000000000  0.00000000000000000000
14.00000000000000000000  1.00000000000000000000  0.00000000000000000000
15.00000000000000000000  1.00000000000000000000  0.00000000000000000000
14.00000000000000000000  2.00000000000000000000  0.00000000000000000000
16.00000000000000000000  0.00000000000000000000  0.00000000000000000000
17.00000000000000000000  0.00000000000000000000  0.00000000000000000000
18.00000000000000000000  0.00000000000000000000  0.00000000000000000000
16.00000000000000000000  1.00000000000000000000  0.00000000000000000000
17.00000000000000000000  1.00000000000000000000  0.00000000000000000000
16.00000000000000000000  2.00000000000000000000  0.00000000000000000000
18.00000000000000000000  0.00000000000000000000  0.00000000000000000000
19.00000000000000000000  0.00000000000000000000  0.00000000000000000000
20.00000000000000000000  0.00000000000000000000  0.00000000000000000000
18.00000000000000000000  1.00000000000000000000  0.00000000000000000000
19.00000000000000000000  1.00000000000000000000  0.00000000000000000000
18.00000000000000000000  2.00000000000000000000  0.00000000000000000000
2.00000000000000000000  0.00000000000000000000  0.00000000000000000000
2.00000000000000000000  1.00000000000000000000  0.00000000000000000000
2.00000000000000000000  2.00000000000000000000  0.00000000000000000000
1.00000000000000000000  1.00000000000000000000  0.00000000000000000000
1.00000000000000000000  2.00000000000000000000  0.00000000000000000000
0.00000000000000000000  2.00000000000000000000  0.00000000000000000000
4.00000000000000000000  0.00000000000000000000  0.00000000000000000000
4.00000000000000000000  1.00000000000000000000  0.00000000000000000000
4.00000000000000000000  2.00000000000000000000  0.00000000000000000000
3.00000000000000000000  1.00000000000000000000  0.00000000000000000000
3.00000000000000000000  2.00000000000000000000  0.00000000000000000000
2.00000000000000000000  2.00000000000000000000  0.00000000000000000000
6.00000000000000000000  0.00000000000000000000  0.00000000000000000000
6.00000000000000000000  1.00000000000000000000  0.00000000000000000000
6.00000000000000000000  2.00000000000000000000  0.00000000000000000000
5.00000000000000000000  1.00000000000000000000  0.00000000000000000000
5.00000000000000000000  2.00000000000000000000  0.00000000000000000000
4.00000000000000000000  2.00000000000000000000  0.00000000000000000000
8.00000000000000000000  0.00000000000000000000  0.00000000000000000000
8.00000000000000000000  1.00000000000000000000  0.00000000000000000000
8.00000000000000000000  2.00000000000000000000  0.00000000000000000000
7.00000000000000000000  1.00000000000000000000  0.00000000000000000000
7.00000000000000000000  2.00000000000000000000  0.00000000000000000000
6.00000000000000000000  2.00000000000000000000  0.00000000000000000000
10.00000000000000000000  0.00000000000000000000  0.00000000000000000000
10.00000000000000000000  1.00000000000000000000  0.00000000000000000000
10.00000000000000000000  2.00000000000000000000  0.00000000000000000000
9.00000000000000000000  1.00000000000000000000  0.00000000000000000000
9.00000000000000000000  2.00000000000000000000  0.00000000000000000000
8.00000000000000000000  2.00000000000000000000  0.00000000000000000000
12.00000000000000000000  0.00000000000000000000  0.00000000000000000000
12.00000000000000000000  1.00000000000000000000  0.00000000000000000000
12.00000000000000000000  2.00000000000000000000  0.00000000000000000000
11.00000000000000000000  1.00000000000000000000  0.00000000000000000000
11.00000000000000000000  2.00000000000000000000  0.00000000000000000000
10.00000000000000000000  2.00000000000000000000  0.00000000000000000000
14.00000000000000000000  0.00000000000000000000  0.00000000000000000000
14.00000000000000000000  1.00000000000000000000  0.00000000000000000000
14.00000000000000000000  2.00000000000000000000  0.00000000000000000000
13.00000000000000000000  1.00000000000000000000  0.00000000000000000000
13.00000000000000000000  2.00000000000000000000  0.00000000000000000000
12.00000000000000000000  2.00000000000000000000  0.00000000000000000000
16.00000000000000000000  0.00000000000000000000  0.00000000000000000000
16.00000000000000000000  1.00000000000000000000  0.00000000000000000000
16.00000000000000000000  2.00000000000000000000  0.00000000000000000000
15.00000000000000000000  1.00000000000000000000  0.00000000000000000000
15.00000000000000000000  2.00000000000000000000  0.00000000000000000000
14.00000000000000000000  2.00000000000000000000  0.00000000000000000000
18.00000000000000000000  0.00000000000000000000  0.00000000000000000000
18.00000000000000000000  1.00000000000000000000  0.00000000000000000000
18.00000000000000000000  2.00000000000000000000  0.00000000000000000000
17.00000000000000000000  1.00000000000000000000  0.00000000000000000000
17.00000000000000000000  2.00000000000000000000  0.00000000000000000000
16.00000000000000000000  2.00000000000000000000  0.00000000000000000000
20.00000000000000000000  0.00000000000000000000  0.00000000000000000000
20.00000000000000000000  1.00000000000000000000  0.00000000000000000000
20.00000000000000000000  2.00000000000000000000  0.00000000000000000000
19.00000000000000000000  1.00000000000000000000  0.00000000000000000000
19.00000000000000000000  2.00000000000000000000  0.00000000000000000000
18.00000000000000000000  2.00000000000000000000  0.00000000000000000000
0.00000000000000000000  2.00000000000000000000  0.00000000000000000000
1.00000000000000000000  2.00000000000000000000  0.00000000000000000000
2.00000000000000000000  2.00000000000000000000  0.00000000000000000000
0.00000000000000000000  3.00000000000000000000  0.00000000000000000000
1.00000000000000000000  3.00000000000000000000  0.00000000000000000000
0.00000000000000000000  4.00000000000000000000  0.00000000000000000000
2.00000000000000000000  2.00000000000000000000  0.00000000000000000000
3.00000000000000000000  2.00000000000000000000  0.00000000000000000000
4.00000000000000000000  2.00000000000000000000  0.00000000000000000000
2.00000000000000000000  3.00000000000000000000  0.00000000000000000000
3.00000000000000000000  3.00000000000000000000  0.00000000000000000000
2.00000000000000000000  4.00000000000000000000  0.00000000000000000000
4.00000000000000000000  2.00000000000000000000  0.00000000000000000000
5.00000000000000000000  2.00000000000000000000  0.00000000000000000000
6.00000000000000000000  2.00000000000000000000  0.00000000000000000000
4.00000000000000000000  3.00000000000000000000  0.00000000000000000000
5.00000000000000000000  3.00000000000000000000  0.00000000000000000000
4.00000000000000000000  4.00000000000000000000  0.00000000000000000000
[...]
POINT_DATA 480
SCALARS  H  double
LOOKUP_TABLE default
      7.515301990741 
      7.519945227077 
      7.533765303234 
      7.515300989128 
      7.519953838825 
      7.515282576500 
      7.533672936220 
      7.555122224090 
      7.582112679794 
      7.533697339304 
      7.555102380733 
      7.533698351942 
      7.581951085497 
      7.612020100681 
      7.641891045308 
      7.582044585435 
      7.611971973891 
      7.582034119547 
      7.641714435023 
      7.668911015589 
      7.690257277394 
      7.641839944002 
      7.668854548005 
      7.641821809742 
      7.690133184334 
      7.704063729803 
      7.708736280232 
      7.690240928354 
      7.704022532082 
      7.690222462522 
      7.708715190446 
      7.704045954433 
      7.690262886694 
      7.708759664507 
      7.704038494119 
      7.708748085747 
      7.690361261777 
      7.668864715741 
      7.641894344406 
      7.690318285279 
      7.668894685596 
      7.690316977174 
      7.642068898135 
      7.611964988448 
      7.582105821318 
      7.641957145514 
      7.612018666720 
      7.641966553289 
      7.582281479741 
      7.555083467978 
      7.533739099491 
      7.582154655003 
      7.555135716953 
      7.582170677557 
      7.533849226772 
      7.519940043242 
      7.515320979383 
      7.533761667181 
      7.519964963551 
      7.533779644263 
      7.533726623297 
      7.533749379201 
      7.533767092011 
      7.519958832442 
      7.519954829241 
      7.515278196978 
      7.582040913055 
      7.582131995027 
      7.582145678270 
      7.555120920853 
      7.555119072350 
      7.533643053724 
      7.641809547718 
      7.641931116670 
      7.641934414155 
      7.611999878759 
      7.612006013249 
      7.581949752090 
      7.690197276158 
      7.690300091515 
      7.690290447529 
      7.668880833092 
      7.668892702222 
      7.641740793961 
      7.708718448320 
      7.708758171763 
      7.708742178178 
      7.704035226109 
      7.704048590468 
      7.690181273246 
      7.690300399696 
      7.690255748054 
      7.690241988800 
      7.704032709793 
      7.704041186871 
      7.708764518254 
      7.641971184652 
      7.641863521482 
      7.641854339605 
      7.668875399933 
      7.668873903077 
      7.690382002523 
      7.582187099343 
      7.582066929725 
      7.582066136242 
      7.611994921535 
      7.611983298190 
      7.642054399585 
      7.533793313408 
      7.533711510591 
      7.533720662832 
      7.555116934992 
      7.555100973020 
      7.582247120927 
      7.515320672805 
      7.515295983305 
      7.515303678979 
      7.519958117021 
      7.519947784272 
      7.533816506748 
      7.515294347810 
      7.519947171183 
      7.533801165567 
      7.515299712114 
      7.519949657999 
      7.515288018062 
      7.533706221568 
      7.555096902165 
      7.582225744835 
      7.533711434286 
      7.555102562250 
      7.533708042500 
      7.582044435892 
      7.611975901148 
      7.642033339785 
      7.582059738360 
      7.611982679293 
      7.582046817339 
      7.641830209005 
      7.668866450571 
      7.690369453299 
      7.641849188313 
      7.668871666254 
      7.641833177439 
      7.690225568420 
      7.704037265667 
      7.708764188539 
      7.690240177205 
      7.704039020834 
      7.690228150372 
      7.708742126690 
      7.704050868879 
      7.690196600529 
      7.708748122904 
      7.704046907158 
      7.708745286378 
      7.690305383180 
      7.668899071988 
      7.641765021670 
      7.690300447943 
      7.668892690884 
      7.690307088026 
      7.641958577980 
      7.612012727027 
      7.581972891627 
      7.641942418744 
      7.612007230678 
      7.641955054852 
      7.582169638867 
      7.555122659920 
      7.533659803835 
      7.582149037492 
      7.555121047811 
      7.582161841843 
      7.533784453757 
      7.519954615980 
      7.515289586380 
      7.533763952420 
      7.519955526321 
      7.533774569407 
      7.533765864430 
      7.533763615429 
      7.533777034337 
      7.519955386239 
      7.519954541923 
      7.515284023929 
      7.582149914017 
      7.582148942670 
      7.582159550279 
      7.555121102266 
      7.555122447914 
      7.533651089033 
      7.641943766907 
      7.641942981769 
      7.641948535328 
      7.612007799099 
      7.612010589447 
      7.581960726300 
      7.690301016060 
      7.690301017223 
      7.690299128783 
      7.668893400042 
      7.668896907075 
      7.641751263561 
      7.708746312044 
      7.708748554713 
      7.708741463113 
      7.704047510050 
      7.704049806255 
      7.690186842068 
      7.690236856057 
      7.690240027817 
      7.690231275147 
      7.704038977219 
      7.704038966494 
      7.708762553144 
      7.641845953186 
      7.641848636295 
      7.641840366991 
      7.668871443669 
      7.668869462949 
      7.690374925557 
      7.582058493324 
      7.582059540420 
      7.582054536910 
      7.611982483067 
      7.611978667428 
      7.642044435118 
      7.533716747028 
      7.533711256320 
      7.533713362487 
      7.555102753194 
      7.555098605555 
      7.582237781041 
      7.515293113480 
      7.515300044132 
      7.515298649816 
      7.519950121475 
      7.519946511977 
      7.533810052235 
      7.515298649816 
      7.519946511977 
      7.533810052235 
      7.515300044132 
      7.519950121475 
      7.515293113480 
      7.533713362487 
      7.555098605555 
      7.582237781041 
      7.533711256320 
      7.555102753194 
      7.533716747028 
      7.582054536910 
      7.611978667428 
      7.642044435118 
      7.582059540420 
      7.611982483067 
      7.582058493324 
      7.641840366991 
      7.668869462949 
      7.690374925557 
      7.641848636295 
      7.668871443669 
      7.641845953186 
      7.690231275147 
      7.704038966494 
      7.708762553144 
      7.690240027817 
      7.704038977219 
      7.690236856057 
      7.708741463113 
      7.704049806255 
      7.690186842068 
      7.708748554713 
      7.704047510050 
      7.708746312044 
      7.690299128783 
      7.668896907075 
      7.641751263561 
      7.690301017223 
      7.668893400042 
      7.690301016060 
      7.641948535328 
      7.612010589447 
      7.581960726300 
      7.641942981769 
      7.612007799099 
      7.641943766907 
      7.582159550279 
      7.555122447914 
      7.533651089033 
      7.582148942670 
      7.555121102266 
      7.582149914017 
      7.533777034337 
      7.519954541923 
      7.515284023929 
      7.533763615429 
      7.519955386239 
      7.533765864430 
      7.533774569407 
      7.533763952420 
      7.533784453757 
      7.519955526321 
      7.519954615980 
      7.515289586380 
      7.582161841843 
      7.582149037492 
      7.582169638867 
      7.555121047811 
      7.555122659920 
      7.533659803835 
      7.641955054852 
      7.641942418744 
      7.641958577980 
      7.612007230678 
      7.612012727027 
      7.581972891627 
      7.690307088026 
      7.690300447943 
      7.690305383180 
      7.668892690884 
      7.668899071988 
      7.641765021670 
      7.708745286378 
      7.708748122904 
      7.708742126690 
      7.704046907158 
      7.704050868879 
      7.690196600529 
      7.690228150372 
      7.690240177205 
      7.690225568420 
      7.704039020834 
      7.704037265667 
      7.708764188539 
      7.641833177439 
      7.641849188313 
      7.641830209005 
      7.668871666254 
      7.668866450571 
      7.690369453299 
      7.582046817339 
      7.582059738360 
      7.582044435892 
      7.611982679293 
      7.611975901148 
      7.642033339785 
      7.533708042500 
      7.533711434286 
      7.533706221568 
      7.555102562250 
      7.555096902165 
      7.582225744835 
      7.515288018062 
      7.515299712114 
      7.515294347810 
      7.519949657999 
      7.519947171183 
      7.533801165567 
      7.515303678979 
      7.519947784272 
      7.533816506748 
      7.515295983305 
      7.519958117021 
      7.515320672805 
      7.533720662832 
      7.555100973020 
      7.582247120927 
      7.533711510591 
      7.555116934992 
      7.533793313408 
      7.582066136242 
      7.611983298190 
      7.642054399585 
      7.582066929725 
      7.611994921535 
      7.582187099343 
      7.641854339605 
      7.668873903077 
      7.690382002523 
      7.641863521482 
      7.668875399933 
      7.641971184652 
      7.690241988800 
      7.704041186871 
      7.708764518254 
      7.690255748054 
      7.704032709793 
      7.690300399696 
      7.708742178178 
      7.704048590468 
      7.690181273246 
      7.708758171763 
      7.704035226109 
      7.708718448320 
      7.690290447529 
      7.668892702222 
      7.641740793961 
      7.690300091515 
      7.668880833092 
      7.690197276158 
      7.641934414155 
      7.612006013249 
      7.581949752090 
      7.641931116670 
      7.611999878759 
      7.641809547718 
      7.582145678270 
      7.555119072350 
      7.533643053724 
      7.582131995027 
      7.555120920853 
      7.582040913055 
      7.533767092011 
      7.519954829241 
      7.515278196978 
      7.533749379201 
      7.519958832442 
      7.533726623297 
      7.533779644263 
      7.533761667181 
      7.533849226772 
      7.519964963551 
      7.519940043242 
      7.515320979383 
      7.582170677557 
      7.582154655003 
      7.582281479741 
      7.555135716953 
      7.555083467978 
      7.533739099491 
      7.641966553289 
      7.641957145514 
      7.642068898135 
      7.612018666720 
      7.611964988448 
      7.582105821318 
      7.690316977174 
      7.690318285279 
      7.690361261777 
      7.668894685596 
      7.668864715741 
      7.641894344406 
      7.708748085747 
      7.708759664507 
      7.708715190446 
      7.704038494119 
      7.704045954433 
      7.690262886694 
      7.690222462522 
      7.690240928354 
      7.690133184334 
      7.704022532082 
      7.704063729803 
      7.708736280232 
      7.641821809742 
      7.641839944002 
      7.641714435023 
      7.668854548005 
      7.668911015589 
      7.690257277394 
      7.582034119547 
      7.582044585435 
      7.581951085497 
      7.611971973891 
      7.612020100681 
      7.641891045308 
      7.533698351942 
      7.533697339304 
      7.533672936220 
      7.555102380733 
      7.555122224090 
      7.582112679794 
      7.515282576500 
      7.515300989128 
      7.515301990741 
      7.519953838825 
      7.519945227077 
      7.533765303234 
SCALARS  HU  double
LOOKUP_TABLE default
      0.000080596095 
     -0.043013677006 
     -0.083146141696 
      0.000033435790 
     -0.043091620618 
      0.000130524066 
     -0.082407914690 
     -0.112761287397 
     -0.133983268113 
     -0.082380757026 
     -0.112944160196 
     -0.082237747408 
     -0.133222567721 
     -0.139334725676 
     -0.133665454221 
     -0.133247604983 
     -0.139543385490 
     -0.133129077380 
     -0.133097146580 
     -0.112676402275 
     -0.082337368368 
     -0.133165746099 
     -0.112834982646 
     -0.133117707744 
     -0.082174334981 
     -0.043043522668 
      0.000383551573 
     -0.082259537781 
     -0.043101351944 
     -0.082292045349 
      0.000093256280 
      0.042955841117 
      0.083006301193 
      0.000013943796 
      0.043055115778 
     -0.000107475655 
      0.082324425148 
      0.112580639838 
      0.133991879410 
      0.082269842205 
      0.112814829264 
      0.082108673104 
      0.133173017846 
      0.139302784278 
      0.133781335078 
      0.133139485595 
      0.139558287752 
      0.133041091842 
      0.133201251938 
      0.112813857240 
      0.082420514713 
      0.133204887585 
      0.112988222848 
      0.133199762529 
      0.082300482499 
      0.043140341504 
     -0.000410317883 
      0.082365737160 
      0.043171187561 
      0.082451793222 
     -0.082601230848 
     -0.082423773459 
     -0.082503414879 
     -0.043222067891 
     -0.043193292764 
      0.000486485297 
     -0.133374723327 
     -0.133233205184 
     -0.133363583071 
     -0.113037941731 
     -0.112919843686 
     -0.082170616952 
     -0.133188113449 
     -0.133117767242 
     -0.133250886129 
     -0.139579411175 
     -0.139413685297 
     -0.133363472062 
     -0.082171320111 
     -0.082204627810 
     -0.082289800430 
     -0.112799165866 
     -0.112641266927 
     -0.133561504839 
      0.000154210483 
      0.000069450498 
      0.000038199028 
     -0.043013758920 
     -0.042929062838 
     -0.082748838875 
      0.082449061498 
      0.082321197298 
      0.082372515200 
      0.043163792477 
      0.043129912741 
     -0.000383995573 
      0.133322087003 
      0.133181361433 
      0.133312949084 
      0.112906150206 
      0.112764253274 
      0.082111075414 
      0.133293553599 
      0.133210042022 
      0.133356874090 
      0.139588940580 
      0.139401258142 
      0.133312589593 
      0.082300067970 
      0.082312186601 
      0.082403073306 
      0.112945376336 
      0.112779121611 
      0.133635800531 
     -0.000102807915 
     -0.000073454507 
     -0.000131910663 
      0.043056328855 
      0.042973189220 
      0.082912472480 
      0.000148995802 
     -0.043013075150 
     -0.082960102058 
      0.000071508853 
     -0.043025186588 
      0.000146360170 
     -0.082340406930 
     -0.112801519978 
     -0.133727743620 
     -0.082370674605 
     -0.112867171391 
     -0.082236888169 
     -0.133264358309 
     -0.139399915669 
     -0.133400745304 
     -0.133276008693 
     -0.139477516618 
     -0.133147656424 
     -0.133225661370 
     -0.112738113620 
     -0.082162964076 
     -0.133224948797 
     -0.112799776184 
     -0.133146787443 
     -0.082325127443 
     -0.043091453121 
      0.000395815045 
     -0.082316278792 
     -0.043111015302 
     -0.082321290963 
     -0.000044124833 
      0.042964474574 
      0.082810561268 
     -0.000031928897 
      0.043001846454 
     -0.000128225300 
      0.082245203991 
      0.112656980270 
      0.133659890029 
      0.082256129684 
      0.112731969622 
      0.082108233616 
      0.133187615336 
      0.139399388940 
      0.133467290254 
      0.133170026289 
      0.139482431838 
      0.133060351179 
      0.133304722683 
      0.112883432257 
      0.082238407536 
      0.133267370679 
      0.112943162799 
      0.133234567176 
      0.082478631413 
      0.043145683516 
     -0.000473809868 
      0.082431277253 
      0.043158350384 
      0.082475828924 
     -0.082489723763 
     -0.082437688581 
     -0.082487818210 
     -0.043166021809 
     -0.043154003760 
      0.000488622965 
     -0.133244360667 
     -0.133267796468 
     -0.133335290625 
     -0.112952585270 
     -0.112892728414 
     -0.082210498644 
     -0.133066189296 
     -0.133164800037 
     -0.133218050904 
     -0.139485896572 
     -0.139398246571 
     -0.133429528491 
     -0.082106916273 
     -0.082245290326 
     -0.082262641664 
     -0.112729800633 
     -0.112645518713 
     -0.133626615207 
      0.000135219636 
      0.000042431978 
      0.000049937435 
     -0.042993388126 
     -0.042946772029 
     -0.082795649555 
      0.082328112414 
      0.082321259263 
      0.082347624612 
      0.043122667256 
      0.043107573042 
     -0.000398491766 
      0.133155032103 
      0.133221394127 
      0.133255493971 
      0.112809917026 
      0.112746906044 
      0.082145587131 
      0.133153634551 
      0.133267468533 
      0.133293254964 
      0.139482884080 
      0.139395514867 
      0.133374329556 
      0.082243014266 
      0.082361351891 
      0.082353853299 
      0.112864457001 
      0.112786912405 
      0.133702654664 
     -0.000141608424 
     -0.000070076694 
     -0.000149381974 
      0.043021642954 
      0.042982252880 
      0.082942276184 
      0.000149381974 
     -0.042982252880 
     -0.082942276184 
      0.000070076694 
     -0.043021642954 
      0.000141608424 
     -0.082353853299 
     -0.112786912405 
     -0.133702654664 
     -0.082361351891 
     -0.112864457001 
     -0.082243014266 
     -0.133293254964 
     -0.139395514867 
     -0.133374329556 
     -0.133267468533 
     -0.139482884080 
     -0.133153634551 
     -0.133255493971 
     -0.112746906044 
     -0.082145587131 
     -0.133221394127 
     -0.112809917026 
     -0.133155032103 
     -0.082347624612 
     -0.043107573042 
      0.000398491766 
     -0.082321259263 
     -0.043122667256 
     -0.082328112414 
     -0.000049937435 
      0.042946772029 
      0.082795649555 
     -0.000042431978 
      0.042993388126 
     -0.000135219636 
      0.082262641664 
      0.112645518713 
      0.133626615207 
      0.082245290326 
      0.112729800633 
      0.082106916273 
      0.133218050904 
      0.139398246571 
      0.133429528491 
      0.133164800037 
      0.139485896572 
      0.133066189296 
      0.133335290625 
      0.112892728414 
      0.082210498644 
      0.133267796468 
      0.112952585270 
      0.133244360667 
      0.082487818210 
      0.043154003760 
     -0.000488622965 
      0.082437688581 
      0.043166021809 
      0.082489723763 
     -0.082475828924 
     -0.082431277253 
     -0.082478631413 
     -0.043158350384 
     -0.043145683516 
      0.000473809868 
     -0.133234567176 
     -0.133267370679 
     -0.133304722683 
     -0.112943162799 
     -0.112883432257 
     -0.082238407536 
     -0.133060351179 
     -0.133170026289 
     -0.133187615336 
     -0.139482431838 
     -0.139399388940 
     -0.133467290254 
     -0.082108233616 
     -0.082256129684 
     -0.082245203991 
     -0.112731969622 
     -0.112656980270 
     -0.133659890029 
      0.000128225300 
      0.000031928897 
      0.000044124833 
     -0.043001846454 
     -0.042964474574 
     -0.082810561268 
      0.082321290963 
      0.082316278792 
      0.082325127443 
      0.043111015302 
      0.043091453121 
     -0.000395815045 
      0.133146787443 
      0.133224948797 
      0.133225661370 
      0.112799776184 
      0.112738113620 
      0.082162964076 
      0.133147656424 
      0.133276008693 
      0.133264358309 
      0.139477516618 
      0.139399915669 
      0.133400745304 
      0.082236888169 
      0.082370674605 
      0.082340406930 
      0.112867171391 
      0.112801519978 
      0.133727743620 
     -0.000146360170 
     -0.000071508853 
     -0.000148995802 
      0.043025186588 
      0.043013075150 
      0.082960102058 
      0.000131910663 
     -0.042973189220 
     -0.082912472480 
      0.000073454507 
     -0.043056328855 
      0.000102807915 
     -0.082403073306 
     -0.112779121611 
     -0.133635800531 
     -0.082312186601 
     -0.112945376336 
     -0.082300067970 
     -0.133356874090 
     -0.139401258142 
     -0.133312589593 
     -0.133210042022 
     -0.139588940580 
     -0.133293553599 
     -0.133312949084 
     -0.112764253274 
     -0.082111075414 
     -0.133181361433 
     -0.112906150206 
     -0.133322087003 
     -0.082372515200 
     -0.043129912741 
      0.000383995573 
     -0.082321197298 
     -0.043163792477 
     -0.082449061498 
     -0.000038199028 
      0.042929062838 
      0.082748838875 
     -0.000069450498 
      0.043013758920 
     -0.000154210483 
      0.082289800430 
      0.112641266927 
      0.133561504839 
      0.082204627810 
      0.112799165866 
      0.082171320111 
      0.133250886129 
      0.139413685297 
      0.133363472062 
      0.133117767242 
      0.139579411175 
      0.133188113449 
      0.133363583071 
      0.112919843686 
      0.082170616952 
      0.133233205184 
      0.113037941731 
      0.133374723327 
      0.082503414879 
      0.043193292764 
     -0.000486485297 
      0.082423773459 
      0.043222067891 
      0.082601230848 
     -0.082451793222 
     -0.082365737160 
     -0.082300482499 
     -0.043171187561 