# vtk DataFile Version 2.0
NDG-FEM NonhydrostaticStandingWave2d Simulation
ASCII
DATASET UNSTRUCTURED_GRID

POINTS 160 double
0.00000000000000000000  0.00000000000000000000  0.00000000000000000000
1.00000000000000000000  0.00000000000000000000  0.00000000000000000000
0.00000000000000000000  1.00000000000000000000  0.00000000000000000000
1.00000000000000000000  1.00000000000000000000  0.00000000000000000000
1.00000000000000000000  0.00000000000000000000  0.00000000000000000000
2.00000000000000000000  0.00000000000000000000  0.00000000000000000000
1.00000000000000000000  1.00000000000000000000  0.00000000000000000000
2.00000000000000000000  1.00000000000000000000  0.00000000000000000000
2.00000000000000000000  0.00000000000000000000  0.00000000000000000000
3.00000000000000000000  0.00000000000000000000  0.00000000000000000000
2.00000000000000000000  1.00000000000000000000  0.00000000000000000000
3.00000000000000000000  1.00000000000000000000  0.00000000000000000000
3.00000000000000000000  0.00000000000000000000  0.00000000000000000000
4.00000000000000000000  0.00000000000000000000  0.00000000000000000000
3.00000000000000000000  1.00000000000000000000  0.00000000000000000000
4.00000000000000000000  1.00000000000000000000  0.00000000000000000000
4.00000000000000000000  0.00000000000000000000  0.00000000000000000000
5.00000000000000000000  0.00000000000000000000  0.00000000000000000000
4.00000000000000000000  1.00000000000000000000  0.00000000000000000000
5.00000000000000000000  1.00000000000000000000  0.00000000000000000000
5.00000000000000000000  0.00000000000000000000  0.00000000000000000000
6.00000000000000000000  0.00000000000000000000  0.00000000000000000000
5.00000000000000000000  1.00000000000000000000  0.00000000000000000000
6.00000000000000000000  1.00000000000000000000  0.00000000000000000000
6.00000000000000000000  0.00000000000000000000  0.00000000000000000000
7.00000000000000000000  0.00000000000000000000  0.00000000000000000000
6.00000000000000000000  1.00000000000000000000  0.00000000000000000000
7.00000000000000000000  1.00000000000000000000  0.00000000000000000000
7.00000000000000000000  0.00000000000000000000  0.00000000000000000000
8.00000000000000000000  0.00000000000000000000  0.00000000000000000000
7.00000000000000000000  1.00000000000000000000  0.00000000000000000000
8.00000000000000000000  1.00000000000000000000  0.00000000000000000000
8.00000000000000000000  0.00000000000000000000  0.00000000000000000000
9.00000000000000000000  0.00000000000000000000  0.00000000000000000000
8.00000000000000000000  1.00000000000000000000  0.00000000000000000000
9.00000000000000000000  1.00000000000000000000  0.00000000000000000000
9.00000000000000000000  0.00000000000000000000  0.00000000000000000000
10.00000000000000000000  0.00000000000000000000  0.00000000000000000000
9.00000000000000000000  1.00000000000000000000  0.00000000000000000000
10.00000000000000000000  1.00000000000000000000  0.00000000000000000000
10.00000000000000000000  0.00000000000000000000  0.00000000000000000000
11.00000000000000000000  0.00000000000000000000  0.00000000000000000000
10.00000000000000000000  1.00000000000000000000  0.00000000000000000000
11.00000000000000000000  1.00000000000000000000  0.00000000000000000000
11.00000000000000000000  0.00000000000000000000  0.00000000000000000000
12.00000000000000000000  0.00000000000000000000  0.00000000000000000000
11.00000000000000000000  1.00000000000000000000  0.00000000000000000000
12.00000000000000000000  1.00000000000000000000  0.00000000000000000000
12.00000000000000000000  0.00000000000000000000  0.00000000000000000000
13.00000000000000000000  0.00000000000000000000  0.00000000000000000000
12.00000000000000000000  1.00000000000000000000  0.00000000000000000000
13.00000000000000000000  1.00000000000000000000  0.00000000000000000000
13.00000000000000000000  0.00000000000000000000  0.00000000000000000000
14.00000000000000000000  0.00000000000000000000  0.00000000000000000000
13.00000000000000000000  1.00000000000000000000  0.00000000000000000000
14.00000000000000000000  1.00000000000000000000  0.00000000000000000000
14.00000000000000000000  0.00000000000000000000  0.00000000000000000000
15.00000000000000000000  0.00000000000000000000  0.00000000000000000000
14.00000000000000000000  1.00000000000000000000  0.00000000000000000000
15.00000000000000000000  1.00000000000000000000  0.00000000000000000000
15.00000000000000000000  0.00000000000000000000  0.00000000000000000000
16.00000000000000000000  0.00000000000000000000  0.00000000000000000000
15.00000000000000000000  1.00000000000000000000  0.00000000000000000000
16.00000000000000000000  1.00000000000000000000  0.00000000000000000000
16.00000000000000000000  0.00000000000000000000  0.00000000000000000000
17.00000000000000000000  0.00000000000000000000  0.00000000000000000000
16.00000000000000000000  1.00000000000000000000  0.00000000000000000000
17.00000000000000000000  1.00000000000000000000  0.00000000000000000000
17.00000000000000000000  0.00000000000000000000  0.00000000000000000000
18.00000000000000000000  0.00000000000000000000  0.00000000000000000000
17.00000000000000000000  1.00000000000000000000  0.00000000000000000000
18.00000000000000000000  1.00000000000000000000  0.00000000000000000000
18.00000000000000000000  0.00000000000000000000  0.00000000000000000000
19.00000000000000000000  0.00000000000000000000  0.00000000000000000000
18.00000000000000000000  1.00000000000000000000  0.00000000000000000000
19.00000000000000000000  1.00000000000000000000  0.00000000000000000000
19.00000000000000000000  0.00000000000000000000  0.00000000000000000000
20.00000000000000000000  0.00000000000000000000  0.00000000000000000000
19.00000000000000000000  1.00000000000000000000  0.00000000000000000000
20.00000000000000000000  1.00000000000000000000  0.00000000000000000000
0.00000000000000000000  1.00000000000000000000  0.00000000000000000000
1.00000000000000000000  1.00000000000000000000  0.00000000000000000000
0.00000000000000000000  2.00000000000000000000  0.00000000000000000000
1.00000000000000000000  2.00000000000000000000  0.00000000000000000000
1.00000000000000000000  1.00000000000000000000  0.00000000000000000000
2.00000000000000000000  1.00000000000000000000  0.00000000000000000000
1.00000000000000000000  2.00000000000000000000  0.00000000000000000000
2.00000000000000000000  2.00000000000000000000  0.00000000000000000000
2.00000000000000000000  1.00000000000000000000  0.00000000000000000000
3.00000000000000000000  1.00000000000000000000  0.00000000000000000000
2.00000000000000000000  2.00000000000000000000  0.00000000000000000000
3.00000000000000000000  2.00000000000000000000  0.00000000000000000000
3.00000000000000000000  1.00000000000000000000  0.00000000000000000000
4.00000000000000000000  1.00000000000000000000  0.00000000000000000000
3.00000000000000000000  2.00000000000000000000  0.00000000000000000000
4.00000000000000000000  2.00000000000000000000  0.00000000000000000000
4.00000000000000000000  1.00000000000000000000  0.00000000000000000000
5.00000000000000000000  1.00000000000000000000  0.00000000000000000000
4.00000000000000000000  2.00000000000000000000  0.00000000000000000000
5.00000000000000000000  2.00000000000000000000  0.00000000000000000000
5.00000000000000000000  1.00000000000000000000  0.00000000000000000000
6.00000000000000000000  1.00000000000000000000  0.00000000000000000000
5.00000000000000000000  2.00000000000000000000  0.00000000000000000000
6.00000000000000000000  2.00000000000000000000  0.00000000000000000000
6.00000000000000000000  1.00000000000000000000  0.00000000000000000000
7.00000000000000000000  1.00000000000000000000  0.00000000000000000000
6.00000000000000000000  2.00000000000000000000  0.00000000000000000000
7.00000000000000000000  2.00000000000000000000  0.00000000000000000000
7.00000000000000000000  1.00000000000000000000  0.00000000000000000000
8.00000000000000000000  1.00000000000000000000  0.00000000000000000000
7.00000000000000000000  2.00000000000000000000  0.00000000000000000000
8.00000000000000000000  2.00000000000000000000  0.00000000000000000000
8.00000000000000000000  1.00000000000000000000  0.00000000000000000000
9.00000000000000000000  1.00000000000000000000  0.00000000000000000000
8.00000000000000000000  2.00000000000000000000  0.00000000000000000000
9.00000000000000000000  2.00000000000000000000  0.00000000000000000000
9.00000000000000000000  1.00000000000000000000  0.00000000000000000000
10.00000000000000000000  1.00000000000000000000  0.00000000000000000000
9.00000000000000000000  2.00000000000000000000  0.00000000000000000000
10.00000000000000000000  2.00000000000000000000  0.00000000000000000000
10.00000000000000000000  1.00000000000000000000  0.00000000000000000000
11.00000000000000000000  1.00000000000000000000  0.00000000000000000000
10.00000000000000000000  2.00000000000000000000  0.00000000000000000000
11.00000000000000000000  2.00000000000000000000  0.00000000000000000000
11.00000000000000000000  1.00000000000000000000  0.00000000000000000000
12.00000000000000000000  1.00000000000000000000  0.00000000000000000000
11.00000000000000000000  2.00000000000000000000  0.00000000000000000000
12.00000000000000000000  2.00000000000000000000  0.00000000000000000000
12.00000000000000000000  1.00000000000000000000  0.00000000000000000000
13.00000000000000000000  1.00000000000000000000  0.00000000000000000000
12.00000000000000000000  2.00000000000000000000  0.00000000000000000000
13.00000000000000000000  2.00000000000000000000  0.00000000000000000000
13.00000000000000000000  1.00000000000000000000  0.00000000000000000000
14.00000000000000000000  1.00000000000000000000  0.00000000000000000000
13.00000000000000000000  2.00000000000000000000  0.00000000000000000000
14.00000000000000000000  2.00000000000000000000  0.00000000000000000000
14.00000000000000000000  1.00000000000000000000  0.00000000000000000000
15.00000000000000000000  1.00000000000000000000  0.00000000000000000000
14.00000000000000000000  2.00000000000000000000  0.00000000000000000000
15.00000000000000000000  2.00000000000000000000  0.00000000000000000000
15.00000000000000000000  1.00000000000000000000  0.00000000000000000000
16.00000000000000000000  1.00000000000000000000  0.00000000000000000000
15.00000000000000000000  2.00000000000000000000  0.00000000000000000000
16.00000000000000000000  2.00000000000000000000  0.00000000000000000000
16.00000000000000000000  1.00000000000000000000  0.00000000000000000000
17.00000000000000000000  1.00000000000000000000  0.00000000000000000000
16.00000000000000000000  2.00000000000000000000  0.00000000000000000000
17.00000000000000000000  2.00000000000000000000  0.00000000000000000000
17.00000000000000000000  1.00000000000000000000  0.00000000000000000000
18.00000000000000000000  1.00000000000000000000  0.00000000000000000000
17.00000000000000000000  2.00000000000000000000  0.00000000000000000000
18.00000000000000000000  2.00000000000000000000  0.00000000000000000000
18.00000000000000000000  1.00000000000000000000  0.00000000000000000000
19.00000000000000000000  1.00000000000000000000  0.00000000000000000000
18.00000000000000000000  2.00000000000000000000  0.00000000000000000000
19.00000000000000000000  2.00000000000000000000  0.00000000000000000000
19.00000000000000000000  1.00000000000000000000  0.00000000000000000000
20.00000000000000000000  1.00000000000000000000  0.00000000000000000000
19.00000000000000000000  2.00000000000000000000  0.00000000000000000000
20.00000000000000000000  2.00000000000000000000  0.00000000000000000000

CELLS 40 200
4 0 1 3 2 
4 4 5 7 6 
4 8 9 11 10 
4 12 13 15 14 
4 16 17 19 18 
4 20 21 23 22 
4 24 25 27 26 
4 28 29 31 30 
4 32 33 35 34 
4 36 37 39 38 
4 40 41 43 42 
4 44 45 47 46 
4 48 49 51 50 
4 52 53 55 54 
4 56 57 59 58 
4 60 61 63 62 
4 64 65 67 66 
4 68 69 71 70 
4 72 73 75 74 
4 76 77 79 78 
4 80 81 83 82 
4 84 85 87 86 
4 88 89 91 90 
4 92 93 95 94 
4 96 97 99 98 
4 100 101 103 102 
4 104 105 107 106 
4 108 109 111 110 
4 112 113 115 114 
4 116 117 119 118 
4 120 121 123 122 
4 124 125 127 126 
4 128 129 131 130 
4 132 133 135 134 
4 136 137 139 138 
4 140 141 143 142 
4 144 145 147 146 
4 148 149 151 150 
4 152 153 155 154 
4 156 157 159 158 

CELL_TYPES 40
9 9 9 9 9 9 9 9 9 9 9 9 
9 9 9 9 9 9 9 9 9 9 9 9 
9 9 9 9 9 9 9 9 9 9 9 9 
9 9 9 9 

POINT_DATA 160
SCALARS  H  double
LOOKUP_TABLE default
      7.526768373154 
      7.526449873278 
      7.526768373154 
      7.526449873278 
      7.526463537990 
      7.540466389402 
      7.526463537990 
      7.540466389402 
      7.540209527644 
      7.559811387309 
      7.540209527644 
      7.559811387309 
      7.559543053285 
      7.584662159381 
      7.559543053285 
      7.584662159381 
      7.584325319369 
      7.612074231408 
      7.584325319369 
      7.612074231408 
      7.611726083026 
      7.639493133212 
      7.611726083026 
      7.639493133212 
      7.639161006194 
      7.664212117009 
      7.639161006194 
      7.664212117009 
      7.663928792883 
      7.683803705594 
      7.663928792883 
      7.683803705594 
      7.683591673683 
      7.696409092110 
      7.683591673683 
      7.696409092110 
      7.696219238364 
      7.700681305705 
      7.696219238364 
      7.700681305705 
      7.700681305705 
      7.696219238364 
      7.700681305705 
      7.696219238364 
      7.696409092110 
      7.683591673683 
      7.696409092110 
      7.683591673683 
      7.683803705594 
      7.663928792883 
      7.683803705594 
      7.663928792883 
      7.664212117009 
      7.639161006194 
      7.664212117009 
      7.639161006194 
      7.639493133212 
      7.611726083026 
      7.639493133212 
      7.611726083026 
      7.612074231408 
      7.584325319369 
      7.612074231408 
      7.584325319369 
      7.584662159381 
      7.559543053285 
      7.584662159381 
      7.559543053285 
      7.559811387309 
      7.540209527644 
      7.559811387309 
      7.540209527644 
      7.540466389402 
      7.526463537990 
      7.540466389402 
      7.526463537990 
      7.526449873278 
      7.526768373154 
      7.526449873278 
      7.526768373154 
      7.526768373154 
      7.526449873278 
      7.526768373154 
      7.526449873278 
      7.526463537990 
      7.540466389402 
      7.526463537990 
      7.540466389402 
      7.540209527644 
      7.559811387309 
      7.540209527644 
      7.559811387309 
      7.559543053285 
      7.584662159381 
      7.559543053285 
      7.584662159381 
      7.584325319369 
      7.612074231408 
      7.584325319369 
      7.612074231408 
      7.611726083026 
      7.639493133212 
      7.611726083026 
      7.639493133212 
      7.639161006194 
      7.664212117009 
      7.639161006194 
      7.664212117009 
      7.663928792883 
      7.683803705594 
      7.663928792883 
      7.683803705594 
      7.683591673683 
      7.696409092110 
      7.683591673683 
      7.696409092110 
      7.696219238364 
      7.700681305705 
      7.696219238364 
      7.700681305705 
      7.700681305705 
      7.696219238364 
      7.700681305705 
      7.696219238364 
      7.696409092110 
      7.683591673683 
      7.696409092110 
      7.683591673683 
      7.683803705594 
      7.663928792883 
      7.683803705594 
      7.663928792883 
      7.664212117009 
      7.639161006194 
      7.664212117009 
      7.639161006194 
      7.639493133212 
      7.611726083026 
      7.639493133212 
      7.611726083026 
      7.612074231408 
      7.584325319369 
      7.612074231408 
      7.584325319369 
      7.584662159381 
      7.559543053285 
      7.584662159381 
      7.559543053285 
      7.559811387309 
      7.540209527644 
      7.559811387309 
      7.540209527644 
      7.540466389402 
      7.526463537990 
      7.540466389402 
      7.526463537990 
      7.526449873278 
      7.526768373154 
      7.526449873278 
      7.526768373154 
SCALARS  HU  double
LOOKUP_TABLE default
     -0.004222545734 
     -0.076615593553 
     -0.004222545734 
     -0.076615593553 
     -0.082314397328 
     -0.149145490565 
     -0.082314397328 
     -0.149145490565 
     -0.153559634214 
     -0.205862358498 
     -0.153559634214 
     -0.205862358498 
     -0.209215136110 
     -0.242993351005 
     -0.209215136110 
     -0.242993351005 
     -0.244550225469 
     -0.256184726221 
     -0.244550225469 
     -0.256184726221 
     -0.255915599366 
     -0.244382747205 
     -0.255915599366 
     -0.244382747205 
     -0.242284699584 
     -0.208719094334 
     -0.242284699584 
     -0.208719094334 
     -0.205017513374 
     -0.152706759303 
     -0.205017513374 
     -0.152706759303 
     -0.147820102784 
     -0.081781370130 
     -0.147820102784 
     -0.081781370130 
     -0.076854705451 
     -0.002252382726 
     -0.076854705451 
     -0.002252382726 
      0.002252382726 
      0.076854705451 
      0.002252382726 
      0.076854705451 
      0.081781370130 
      0.147820102784 
      0.081781370130 
      0.147820102784 
      0.152706759303 
      0.205017513374 
      0.152706759303 
      0.205017513374 
      0.208719094334 
      0.242284699584 
      0.208719094334 
      0.242284699584 
      0.244382747205 
      0.255915599366 
      0.244382747205 
      0.255915599366 
      0.256184726221 
      0.244550225469 
      0.256184726221 
      0.244550225469 
      0.242993351005 
      0.209215136110 
      0.242993351005 
      0.209215136110 
      0.205862358498 
      0.153559634214 
      0.205862358498 
      0.153559634214 
      0.149145490565 
      0.082314397328 
      0.149145490565 
      0.082314397328 
      0.076615593553 
      0.004222545734 
      0.076615593553 
      0.004222545734 
     -0.004222545734 
     -0.076615593553 
     -0.004222545734 
     -0.076615593553 
     -0.082314397328 
     -0.149145490565 
     -0.082314397328 
     -0.149145490565 
     -0.153559634214 
     -0.205862358498 
     -0.153559634214 
     -0.205862358498 
     -0.209215136110 
     -0.242993351005 
     -0.209215136110 
     -0.242993351005 
     -0.244550225469 
     -0.256184726221 
     -0.244550225469 
     -0.256184726221 
     -0.255915599366 
     -0.244382747205 
     -0.255915599366 
     -0.244382747205 
     -0.242284699584 
     -0.208719094334 
     -0.242284699584 
     -0.208719094334 
     -0.205017513374 
     -0.152706759303 
     -0.205017513374 
     -0.152706759303 
     -0.147820102784 
     -0.081781370130 
     -0.147820102784 
     -0.081781370130 
     -0.076854705451 
     -0.002252382726 
     -0.076854705451 
     -0.002252382726 
      0.002252382726 
      0.076854705451 
      0.002252382726 
      0.076854705451 
      0.081781370130 
      0.147820102784 
      0.081781370130 
      0.147820102784 
      0.152706759303 
      0.205017513374 
      0.152706759303 
      0.205017513374 
      0.208719094334 
      0.242284699584 
      0.208719094334 
      0.242284699584 
      0.244382747205 
      0.255915599366 
      0.244382747205 
      0.255915599366 
      0.256184726221 
      0.244550225469 
      0.256184726221 
      0.244550225469 
      0.242993351005 
      0.209215136110 
      0.242993351005 
      0.209215136110 
      0.205862358498 
      0.153559634214 
      0.205862358498 
      0.153559634214 
      0.149145490565 
      0.082314397328 
      0.149145490565 
      0.082314397328 
      0.076615593553 
      0.004222545734 
      0.076615593553 
      0.004222545734 
SCALARS  HV  double
LOOKUP_TABLE default
     -0.000000000000 
      0.000000000000 
     -0.000000000000 
      0.000000000000 
      0.000000000000 
      0.000000000000 
      0.000000000000 
     -0.000000000000 
     -0.000000000000 
      0.000000000000 
     -0.000000000000 
      0.000000000000 
      0.000000000000 
      0.000000000000 
      0.000000000000 
      0.000000000000 
      0.000000000000 
      0.000000000000 
      0.000000000000 
      0.000000000000 
     -0.000000000000 
      0.000000000000 
      0.000000000000 
      0.000000000000 
      0.000000000000 
      0.000000000000 
      0.000000000000 
      0.000000000000 
      0.000000000000 
     -0.000000000000 
      0.000000000000 
      0.000000000000 
      0.000000000000 
      0.000000000000 
      0.000000000000 
      0.000000000000 
     -0.000000000000 
     -0.000000000000 
     -0.000000000000 
     -0.000000000000 
      0.000000000000 
     -0.000000000000 
      0.000000000000 
     -0.000000000000 
     -0.000000000000 
     -0.000000000000 
     -0.000000000000 
     -0.000000000000 
     -0.000000000000 
      0.000000000000 
     -0.000000000000 
     -0.000000000000 
      0.000000000000 
      0.000000000000 
     -0.000000000000 
     -0.000000000000 
     -0.000000000000 
     -0.000000000000 
     -0.000000000000 
     -0.000000000000 
     -0.000000000000 
     -0.000000000000 
     -0.000000000000 
     -0.000000000000 
     -0.000000000000 
      0.000000000000 
     -0.000000000000 
      0.000000000000 
      0.000000000000 
      0.000000000000 
      0.000000000000 
      0.000000000000 
      0.000000000000 
      0.000000000000 
      0.000000000000 
      0.000000000000 
      0.000000000000 
     -0.000000000000 
      0.000000000000 
     -0.000000000000 
     -0.000000000000 
      0.000000000000 
     -0.000000000000 
     -0.000000000000 
      0.000000000000 
     -0.000000000000 
     -0.000000000000 
      0.000000000000 
      0.000000000000 
     -0.000000000000 
      0.000000000000 
      0.000000000000 
      0.000000000000 
      0.000000000000 
      0.000000000000 
      0.000000000000 
      0.000000000000 
      0.000000000000 
      0.000000000000 
      0.000000000000 
      0.000000000000 
      0.000000000000 
      0.000000000000 
      0.000000000000 
      0.000000000000 
     -0.000000000000 
     -0.000000000000 
     -0.000000000000 
     -0.000000000000 
     -0.000000000000 
      0.000000000000 
     -0.000000000000 
      0.000000000000 
     -0.000000000000 
     -0.000000000000 
      0.000000000000 
      0.000000000000 
      0.000000000000 
      0.000000000000 
     -0.000000000000 
      0.000000000000 
     -0.000000000000 
     -0.000000000000 
      0.000000000000 
     -0.000000000000 
      0.000000000000 
      0.000000000000 
      0.000000000000 
     -0.000000000000 
     -0.000000000000 
      0.000000000000 
     -0.000000000000 
     -0.000000000000 
     -0.000000000000 
     -0.000000000000 
     -0.000000000000 
     -0.000000000000 
     -0.000000000000 
     -0.000000000000 
     -0.000000000000 
     -0.000000000000 
     -0.000000000000 
     -0.000000000000 
     -0.000000000000 
     -0.000000000000 
      0.000000000000 
     -0.000000000000 
      0.000000000000 
      0.000000000000 
     -0.000000000000 
      0.000000000000 
      0.000000000000 
     -0.000000000000 
      0.000000000000 
      0.000000000000 
     -0.000000000000 
      0.000000000000 
      0.000000000000 
     -0.000000000000 
     -0.000000000000 
SCALARS  HW  double
LOOKUP_TABLE default
      0.288843994395 
      0.292935389497 
      0.288843994395 
      0.292935389497 
      0.289986315874 
      0.244014669695 
      0.289986315874 
      0.244014669695 
      0.242257100757 
      0.177011245121 
      0.242257100757 
      0.177011245121 
      0.175419259072 
      0.090788721244 
      0.175419259072 
      0.090788721244 
      0.089852152280 
     -0.004177699664 
      0.089852152280 
     -0.004177699664 
     -0.004448921872 
     -0.099023836851 
     -0.004448921872 
     -0.099023836851 
     -0.098617616810 
     -0.184394419114 
     -0.098617616810 
     -0.184394419114 
     -0.183407351180 
     -0.251960499099 
     -0.183407351180 
     -0.251960499099 
     -0.250543262951 
     -0.295520936205 
     -0.250543262951 
     -0.295520936205 
     -0.293923114822 
     -0.309924535970 
     -0.293923114822 
     -0.309924535970 
     -0.309924535970 
     -0.293923114822 
     -0.309924535970 
     -0.293923114822 
     -0.295520936205 
     -0.250543262951 
     -0.295520936205 
     -0.250543262951 
     -0.251960499099 
     -0.183407351180 
     -0.251960499099 
     -0.183407351180 
     -0.184394419114 
     -0.098617616810 
     -0.184394419114 
     -0.098617616810 
     -0.099023836851 
     -0.004448921872 
     -0.099023836851 
     -0.004448921872 
     -0.004177699664 
      0.089852152280 
     -0.004177699664 
      0.089852152280 
      0.090788721244 
      0.175419259072 
      0.090788721244 
      0.175419259072 
      0.177011245121 
      0.242257100757 
      0.177011245121 
      0.242257100757 
      0.244014669695 
      0.289986315874 
      0.244014669695 
      0.289986315874 
      0.292935389497 
      0.288843994395 
      0.292935389497 
      0.288843994395 
      0.288843994395 
      0.292935389497 
      0.288843994395 
      0.292935389497 
      0.289986315874 
      0.244014669695 
      0.289986315874 
      0.244014669695 
      0.242257100757 
      0.177011245121 
      0.242257100757 
      0.177011245121 
      0.175419259072 
      0.090788721244 
      0.175419259072 
      0.090788721244 
      0.089852152280 
     -0.004177699664 
      0.089852152280 
     -0.004177699664 
     -0.004448921872 
     -0.099023836851 
     -0.004448921872 
     -0.099023836851 
     -0.098617616810 
     -0.184394419114 
     -0.098617616810 
     -0.184394419114 
     -0.183407351180 
     -0.251960499099 
     -0.183407351180 
     -0.251960499099 
     -0.250543262951 
     -0.295520936205 
     -0.250543262951 
     -0.295520936205 
     -0.293923114822 
     -0.309924535970 
     -0.293923114822 
     -0.309924535970 
     -0.309924535970 
     -0.293923114822 
     -0.309924535970 
     -0.293923114822 
     -0.295520936205 
     -0.250543262951 
     -0.295520936205 
     -0.250543262951 
     -0.251960499099 
     -0.183407351180 
     -0.251960499099 
     -0.183407351180 
     -0.184394419114 
     -0.098617616810 
     -0.184394419114 
     -0.098617616810 
     -0.099023836851 
     -0.004448921872 
     -0.099023836851 
     -0.004448921872 
     -0.004177699664 
      0.089852152280 
     -0.004177699664 
      0.089852152280 
      0.090788721244 
      0.175419259072 
      0.090788721244 
      0.175419259072 
      0.177011245121 
      0.242257100757 
      0.177011245121 
      0.242257100757 
      0.244014669695 
      0.289986315874 
      0.244014669695 
      0.289986315874 
      0.292935389497 
      0.288843994395 
      0.292935389497 
      0.288843994395 
SCALARS  q  double
LOOKUP_TABLE default
      0.480021660715 
      0.502762006913 
      0.480021660715 
      0.502762006913 
      0.497435281001 
      0.414674450590 
      0.497435281001 
      0.414674450590 
      0.411656818934 
      0.302668297392 
      0.411656818934 
      0.302668297392 
      0.299628314583 
      0.157703535264 
      0.299628314583 
      0.157703535264 
      0.155567064788 
     -0.001497053930 
      0.155567064788 
     -0.001497053930 
     -0.002661889305 
     -0.160550153114 
     -0.002661889305 
     -0.160550153114 
     -0.160593546671 
     -0.303820644211 
     -0.160593546671 
     -0.303820644211 
     -0.302746729937 
     -0.417332862337 
     -0.302746729937 
     -0.417332862337 
     -0.415288078710 
     -0.490657986666 
     -0.415288078710 
     -0.490657986666 
     -0.488031367054 
     -0.514923956829 
     -0.488031367054 
     -0.514923956829 
     -0.514923956829 
     -0.488031367054 
     -0.514923956829 
     -0.488031367054 
     -0.490657986666 
     -0.415288078710 
     -0.490657986666 
     -0.415288078710 
     -0.417332862337 
     -0.302746729937 
     -0.417332862337 
     -0.302746729937 
     -0.303820644211 
     -0.160593546671 
     -0.303820644211 
     -0.160593546671 
     -0.160550153114 
     -0.002661889305 
     -0.160550153114 
     -0.002661889305 
     -0.001497053930 
      0.155567064788 
     -0.001497053930 
      0.155567064788 
      0.157703535264 
      0.299628314583 
      0.157703535264 
      0.299628314583 
      0.302668297392 
      0.411656818934 
      0.302668297392 
      0.411656818934 
      0.414674450590 
      0.497435281001 
      0.414674450590 
      0.497435281001 
      0.502762006913 
      0.480021660715 
      0.502762006913 
      0.480021660715 
      0.480021660715 
      0.502762006913 
      0.480021660715 
      0.502762006913 
      0.497435281001 
      0.414674450590 
      0.497435281001 
      0.414674450590 
      0.411656818934 
      0.302668297392 
      0.411656818934 
      0.302668297392 
      0.299628314583 
      0.157703535264 
      0.299628314583 
      0.157703535264 
      0.155567064788 
     -0.001497053930 
      0.155567064788 
     -0.001497053930 
     -0.002661889305 
     -0.160550153114 
     -0.002661889305 
     -0.160550153114 
     -0.160593546671 
     -0.303820644211 
     -0.160593546671 
     -0.303820644211 
     -0.302746729937 
     -0.417332862337 
     -0.302746729937 
     -0.417332862337 
     -0.415288078710 
     -0.490657986666 
     -0.415288078710 
     -0.490657986666 
     -0.488031367054 
     -0.514923956829 
     -0.488031367054 
     -0.514923956829 
     -0.514923956829 
     -0.488031367054 
     -0.514923956829 
     -0.488031367054 
     -0.490657986666 
     -0.415288078710 
     -0.490657986666 
     -0.415288078710 
     -0.417332862337 
     -0.302746729937 
     -0.417332862337 
     -0.302746729937 
     -0.303820644211 
     -0.160593546671 
     -0.303820644211 
     -0.160593546671 
     -0.160550153114 
     -0.002661889305 
     -0.160550153114 
     -0.002661889305 
     -0.001497053930 
      0.155567064788 
     -0.001497053930 
      0.155567064788 
      0.157703535264 
      0.299628314583 
      0.157703535264 
      0.299628314583 
      0.302668297392 
      0.411656818934 
      0.302668297392 
      0.411656818934 
      0.414674450590 