# vtk DataFile Version 2.0
NDG-FEM NonhydrostaticStandingWave2d Simulation
ASCII
DATASET UNSTRUCTURED_GRID

POINTS 1800 double
0.00000000000000000000  0.00000000000000000000  0.00000000000000000000
1.00000000000000000000  0.00000000000000000000  0.00000000000000000000
2.00000000000000000000  0.00000000000000000000  0.00000000000000000000
0.00000000000000000000  1.00000000000000000000  0.00000000000000000000
1.00000000000000000000  1.00000000000000000000  0.00000000000000000000
0.00000000000000000000  2.00000000000000000000  0.00000000000000000000
2.00000000000000000000  0.00000000000000000000  0.00000000000000000000
3.00000000000000000000  0.00000000000000000000  0.00000000000000000000
4.00000000000000000000  0.00000000000000000000  0.00000000000000000000
2.00000000000000000000  1.00000000000000000000  0.00000000000000000000
3.00000000000000000000  1.00000000000000000000  0.00000000000000000000
2.00000000000000000000  2.00000000000000000000  0.00000000000000000000
4.00000000000000000000  0.00000000000000000000  0.00000000000000000000
5.00000000000000000000  0.00000000000000000000  0.00000000000000000000
6.00000000000000000000  0.00000000000000000000  0.00000000000000000000
4.00000000000000000000  1.00000000000000000000  0.00000000000000000000
5.00000000000000000000  1.00000000000000000000  0.00000000000000000000
4.00000000000000000000  2.00000000000000000000  0.00000000000000000000
6.00000000000000000000  0.00000000000000000000  0.00000000000000000000
7.00000000000000000000  0.00000000000000000000  0.00000000000000000000
8.00000000000000000000  0.00000000000000000000  0.00000000000000000000
6.00000000000000000000  1.00000000000000000000  0.00000000000000000000
7.00000000000000000000  1.00000000000000000000  0.00000000000000000000
6.00000000000000000000  2.00000000000000000000  0.00000000000000000000
8.00000000000000000000  0.00000000000000000000  0.00000000000000000000
9.00000000000000000000  0.00000000000000000000  0.00000000000000000000
10.00000000000000000000  0.00000000000000000000  0.00000000000000000000
8.00000000000000000000  1.00000000000000000000  0.00000000000000000000
9.00000000000000000000  1.00000000000000000000  0.00000000000000000000
8.00000000000000000000  2.00000000000000000000  0.00000000000000000000
10.00000000000000000000  0.00000000000000000000  0.00000000000000000000
11.00000000000000000000  0.00000000000000000000  0.00000000000000000000
12.00000000000000000000  0.00000000000000000000  0.00000000000000000000
10.00000000000000000000  1.00000000000000000000  0.00000000000000000000
11.00000000000000000000  1.00000000000000000000  0.00000000000000000000
10.00000000000000000000  2.00000000000000000000  0.00000000000000000000
12.00000000000000000000  0.00000000000000000000  0.00000000000000000000
13.00000000000000000000  0.00000000000000000000  0.00000000000000000000
14.00000000000000000000  0.00000000000000000000  0.00000000000000000000
12.00000000000000000000  1.00000000000000000000  0.00000000000000000000
13.00000000000000000000  1.00000000000000000000  0.00000000000000000000
12.00000000000000000000  2.00000000000000000000  0.00000000000000000000
14.00000000000000000000  0.00000000000000000000  0.00000000000000000000
15.00000000000000000000  0.00000000000000000000  0.00000000000000000000
16.00000000000000000000  0.00000000000000000000  0.00000000000000000000
14.00000000000000000000  1.00000000000000000000  0.00000000000000000000
15.00000000000000000000  1.00000000000000000000  0.00000000000000000000
14.00000000000000000000  2.00000000000000000000  0.00000000000000000000
16.00000000000000000000  0.00000000000000000000  0.00000000000000000000
17.00000000000000000000  0.00000000000000000000  0.00000000000000000000
18.00000000000000000000  0.00000000000000000000  0.00000000000000000000
16.00000000000000000000  1.00000000000000000000  0.00000000000000000000
17.00000000000000000000  1.00000000000000000000  0.00000000000000000000
16.00000000000000000000  2.00000000000000000000  0.00000000000000000000
18.00000000000000000000  0.00000000000000000000  0.00000000000000000000
19.00000000000000000000  0.00000000000000000000  0.00000000000000000000
20.00000000000000000000  0.00000000000000000000  0.00000000000000000000
18.00000000000000000000  1.00000000000000000000  0.00000000000000000000
19.00000000000000000000  1.00000000000000000000  0.00000000000000000000
18.00000000000000000000  2.00000000000000000000  0.00000000000000000000
20.00000000000000000000  0.00000000000000000000  0.00000000000000000000
21.00000000000000000000  0.00000000000000000000  0.00000000000000000000
22.00000000000000000000  0.00000000000000000000  0.00000000000000000000
20.00000000000000000000  1.00000000000000000000  0.00000000000000000000
21.00000000000000000000  1.00000000000000000000  0.00000000000000000000
20.00000000000000000000  2.00000000000000000000  0.00000000000000000000
22.00000000000000000000  0.00000000000000000000  0.00000000000000000000
23.00000000000000000000  0.00000000000000000000  0.00000000000000000000
24.00000000000000000000  0.00000000000000000000  0.00000000000000000000
22.00000000000000000000  1.00000000000000000000  0.00000000000000000000
23.00000000000000000000  1.00000000000000000000  0.00000000000000000000
22.00000000000000000000  2.00000000000000000000  0.00000000000000000000
24.00000000000000000000  0.00000000000000000000  0.00000000000000000000
25.00000000000000000000  0.00000000000000000000  0.00000000000000000000
26.00000000000000000000  0.00000000000000000000  0.00000000000000000000
24.00000000000000000000  1.00000000000000000000  0.00000000000000000000
25.00000000000000000000  1.00000000000000000000  0.00000000000000000000
24.00000000000000000000  2.00000000000000000000  0.00000000000000000000
26.00000000000000000000  0.00000000000000000000  0.00000000000000000000
27.00000000000000000000  0.00000000000000000000  0.00000000000000000000
28.00000000000000000000  0.00000000000000000000  0.00000000000000000000
26.00000000000000000000  1.00000000000000000000  0.00000000000000000000
27.00000000000000000000  1.00000000000000000000  0.00000000000000000000
26.00000000000000000000  2.00000000000000000000  0.00000000000000000000
28.00000000000000000000  0.00000000000000000000  0.00000000000000000000
29.00000000000000000000  0.00000000000000000000  0.00000000000000000000
30.00000000000000000000  0.00000000000000000000  0.00000000000000000000
28.00000000000000000000  1.00000000000000000000  0.00000000000000000000
29.00000000000000000000  1.00000000000000000000  0.00000000000000000000
28.00000000000000000000  2.00000000000000000000  0.00000000000000000000
30.00000000000000000000  0.00000000000000000000  0.00000000000000000000
31.00000000000000000000  0.00000000000000000000  0.00000000000000000000
32.00000000000000000000  0.00000000000000000000  0.00000000000000000000
30.00000000000000000000  1.00000000000000000000  0.00000000000000000000
31.00000000000000000000  1.00000000000000000000  0.00000000000000000000
30.00000000000000000000  2.00000000000000000000  0.00000000000000000000
32.00000000000000000000  0.00000000000000000000  0.00000000000000000000
33.00000000000000000000  0.00000000000000000000  0.00000000000000000000
34.00000000000000000000  0.00000000000000000000  0.00000000000000000000
32.00000000000000000000  1.00000000000000000000  0.00000000000000000000
33.00000000000000000000  1.00000000000000000000  0.00000000000000000000
32.00000000000000000000  2.00000000000000000000  0.00000000000000000000
34.00000000000000000000  0.00000000000000000000  0.00000000000000000000
35.00000000000000000000  0.00000000000000000000  0.00000000000000000000
36.00000000000000000000  0.00000000000000000000  0.00000000000000000000
34.00000000000000000000  1.00000000000000000000  0.00000000000000000000
35.00000000000000000000  1.00000000000000000000  0.00000000000000000000
34.00000000000000000000  2.00000000000000000000  0.00000000000000000000
36.00000000000000000000  0.00000000000000000000  0.00000000000000000000
37.00000000000000000000  0.00000000000000000000  0.00000000000000000000
38.00000000000000000000  0.00000000000000000000  0.00000000000000000000
36.00000000000000000000  1.00000000000000000000  0.00000000000000000000
37.00000000000000000000  1.00000000000000000000  0.00000000000000000000
36.00000000000000000000  2.00000000000000000000  0.00000000000000000000
38.00000000000000000000  0.00000000000000000000  0.00000000000000000000
39.00000000000000000000  0.00000000000000000000  0.00000000000000000000
40.00000000000000000000  0.00000000000000000000  0.00000000000000000000
38.00000000000000000000  1.00000000000000000000  0.00000000000000000000
39.00000000000000000000  1.00000000000000000000  0.00000000000000000000
38.00000000000000000000  2.00000000000000000000  0.00000000000000000000
40.00000000000000000000  0.00000000000000000000  0.00000000000000000000
41.00000000000000000000  0.00000000000000000000  0.00000000000000000000
42.00000000000000000000  0.00000000000000000000  0.00000000000000000000
40.00000000000000000000  1.00000000000000000000  0.00000000000000000000
41.00000000000000000000  1.00000000000000000000  0.00000000000000000000
40.00000000000000000000  2.00000000000000000000  0.00000000000000000000
42.00000000000000000000  0.00000000000000000000  0.00000000000000000000
43.00000000000000000000  0.00000000000000000000  0.00000000000000000000
44.00000000000000000000  0.00000000000000000000  0.00000000000000000000
42.00000000000000000000  1.00000000000000000000  0.00000000000000000000
43.00000000000000000000  1.00000000000000000000  0.00000000000000000000
42.00000000000000000000  2.00000000000000000000  0.00000000000000000000
44.00000000000000000000  0.00000000000000000000  0.00000000000000000000
45.00000000000000000000  0.00000000000000000000  0.00000000000000000000
46.00000000000000000000  0.00000000000000000000  0.00000000000000000000
44.00000000000000000000  1.00000000000000000000  0.00000000000000000000
45.00000000000000000000  1.00000000000000000000  0.00000000000000000000
[...]
POINT_DATA 1800
SCALARS  H  double
LOOKUP_TABLE default
      7.693486264346 
      7.689778572657 
      7.678513913179 
      7.693453851079 
      7.689750993496 
      7.693480268313 
      7.678788758875 
      7.661352145639 
      7.638642052116 
      7.678740672166 
      7.661334074465 
      7.678766774226 
      7.639097676654 
      7.613627748152 
      7.587295443028 
      7.639051117726 
      7.613620712302 
      7.639087632152 
      7.587798431006 
      7.563695062878 
      7.544053997921 
      7.587762677740 
      7.563696989688 
      7.587797457477 
      7.544412133618 
      7.531686008019 
      7.527284222705 
      7.544394314382 
      7.531697257823 
      7.544412622588 
      7.527321595797 
      7.531654264062 
      7.544539126508 
      7.527330503785 
      7.531674520157 
      7.527323634769 
      7.544207931553 
      7.563618364389 
      7.588032702355 
      7.544248007924 
      7.563639889494 
      7.544217689388 
      7.587478854581 
      7.613548402681 
      7.639309049390 
      7.587537461651 
      7.613559222945 
      7.587496698196 
      7.638801257354 
      7.661298028783 
      7.678878659794 
      7.638848276560 
      7.661292437328 
      7.638814277499 
      7.678616998459 
      7.689753957961 
      7.693452283791 
      7.678628394157 
      7.689736671400 
      7.678614430795 
      7.693482316129 
      7.689769933067 
      7.678503739838 
      7.693457336372 
      7.689749704889 
      7.693466174672 
      7.678784084733 
      7.661348036541 
      7.638639469651 
      7.678739170645 
      7.661332305363 
      7.678766489514 
      7.639095821463 
      7.613627836261 
      7.587295605833 
      7.639049293569 
      7.613620354927 
      7.639086673052 
      7.587798501312 
      7.563696725682 
      7.544055515547 
      7.587762421794 
      7.563698381755 
      7.587797243866 
      7.544413323376 
      7.531687476123 
      7.527284663319 
      7.544395433793 
      7.531698926865 
      7.544413612426 
      7.527321858340 
      7.531653911220 
      7.544538937897 
      7.527330469366 
      7.531674299828 
      7.527323298833 
      7.544207608905 
      7.563617816801 
      7.588033053783 
      7.544247484161 
      7.563639413697 
      7.544217013784 
      7.587479241961 
      7.613548510330 
      7.639308963546 
      7.587537812427 
      7.613559205730 
      7.587496845004 
      7.638801176495 
      7.661298019698 
      7.678878699605 
      7.638848269555 
      7.661292427220 
      7.638814378827 
      7.678617039381 
      7.689753954601 
      7.693452266088 
      7.678628429057 
      7.689736666892 
      7.678614465380 
      7.693482312930 
      7.689769939441 
      7.678503730155 
      7.693457337307 
      7.689749709756 
      7.693466175862 
      7.678784078782 
      7.661348037746 
      7.638639468644 
      7.678739167038 
      7.661332306938 
      7.678766487724 
      7.639095820323 
      7.613627836263 
      7.587295605933 
      7.639049292649 
      7.613620355128 
      7.639086672471 
      7.587798501218 
      7.563696725655 
      7.544055515597 
      7.587762421670 
      7.563698381767 
      7.587797243764 
      7.544413323376 
      7.531687476117 
      7.527284663330 
      7.544395433781 
      7.531698926865 
      7.544413612413 
      7.527321858341 
      7.531653911219 
      7.544538937899 
      7.527330469365 
      7.531674299828 
      7.527323298831 
      7.544207608905 
      7.563617816801 
      7.588033053783 
      7.544247484161 
      7.563639413697 
      7.544217013784 
      7.587479241962 
      7.613548510330 
      7.639308963546 
      7.587537812427 
      7.613559205730 
      7.587496845004 
      7.638801176495 
      7.661298019698 
      7.678878699605 
      7.638848269555 
      7.661292427220 
      7.638814378827 
      7.678617039381 
      7.689753954601 
      7.693452266088 
      7.678628429057 
      7.689736666892 
      7.678614465380 
      7.693482312930 
      7.689769939441 
      7.678503730155 
      7.693457337307 
      7.689749709756 
      7.693466175862 
      7.678784078782 
      7.661348037746 
      7.638639468644 
      7.678739167038 
      7.661332306938 
      7.678766487724 
      7.639095820323 
      7.613627836263 
      7.587295605933 
      7.639049292649 
      7.613620355128 
      7.639086672471 
      7.587798501218 
      7.563696725655 
      7.544055515597 
      7.587762421670 
      7.563698381767 
      7.587797243764 
      7.544413323376 
      7.531687476117 
      7.527284663329 
      7.544395433781 
      7.531698926865 
      7.544413612413 
      7.527321858341 
      7.531653911219 
      7.544538937895 
      7.527330469365 
      7.531674299827 
      7.527323298832 
      7.544207608907 
      7.563617816801 
      7.588033053748 
      7.544247484166 
      7.563639413690 
      7.544217013791 
      7.587479241959 
      7.613548510346 
      7.639308963281 
      7.587537812454 
      7.613559205688 
      7.587496845053 
      7.638801176378 
      7.661298019914 
      7.678878698093 
      7.638848269660 
      7.661292427162 
      7.638814379203 
      7.678617038266 
      7.689753956151 
      7.693452260915 
      7.678628428887 
      7.689736668395 
      7.678614467239 
      7.693482307125 
      7.689769945035 
      7.678503734131 
      7.693457331257 
      7.689749723396 
      7.693466174919 
      7.678784065872 
      7.661348031096 
      7.638639616976 
      7.678739133905 
      7.661332333069 
      7.678766428795 
      7.639095888083 
      7.613627674881 
      7.587295835091 
      7.639049314702 
      7.613620152426 
      7.639086557389 
      7.587798845542 
      7.563696798002 
      7.544053505195 
      7.587762877720 
      7.563698147308 
      7.587797715183 
      7.544411820713 
      7.531687640356 
      7.527285819624 
      7.544394512426 
      7.531699153942 
      7.544413724141 
      7.527322253777 
      7.531654818130 
      7.544542230820 
      7.527330533091 
      7.531676147338 
      7.527323513645 
      7.544210437074 
      7.563618674302 
      7.588033087694 
      7.544249029594 
      7.563640210882 
      7.544217020224 
      7.587479733337 
      7.613548343760 
      7.639308150013 
      7.587538058962 
      7.613558168115 
      7.587495989472 
      7.638799403397 
      7.661294305878 
      7.678873932364 
      7.638846943213 
      7.661290010662 
      7.638812506289 
      7.678605575863 
      7.689756771342 
      7.693447005731 
      7.678620054796 
      7.689736459267 
      7.678608227847 
      7.678619260546 
      7.678598695264 
      7.678596388015 
      7.689744596429 
      7.689768211014 
      7.693487581640 
      7.638822247573 
      7.638824778676 
      7.638808586347 
      7.661292946321 
      7.661309431248 
      7.678896637856 
      7.587504817273 
      7.587528253920 
      7.587510139899 
      7.613552732113 
      7.613558668970 
      7.639312260250 
      7.544220757037 
      7.544252981560 
      7.544240573349 
      7.563629239176 
      7.563623168053 
      7.588025075410 
      7.527322165827 
      7.527348418097 
      7.527345029062 
      7.531663098698 
      7.531649528229 
      7.544525498628 
      7.544408939420 
      7.544420178463 
      7.544426002137 
      7.531690794969 
      7.531673301100 
      7.527269670998 
      7.587791568767 
      7.587786350020 
      7.587800132005 
      7.563695885083 
      7.563678972363 
      7.544038508635 
      7.639082891573 
      7.639063762294 
      7.639080666036 
      7.613626854341 
      7.613617957375 
      7.587282946184 
      7.678763146547 
      7.678735763206 
      7.678749781456 
      7.661346010784 
      7.661350008218 
      7.638642367709 
      7.693463445067 
      7.693436351883 
      7.693441853180 
      7.689762586212 
      7.689778965398 
      7.678523246512 
      7.678615107966 
      7.678598907434 
      7.678592876156 
      7.689742216396 
      7.689764130443 
      7.693477943937 
      7.638820397479 
      7.638823651425 
      7.638807964605 
      7.661289969588 
      7.661307420522 
      7.678896560811 
      7.587505346158 
      7.587528332980 
      7.587510212146 
      7.613552150065 
      7.613557483403 
      7.639311985587 
      7.544222289442 
      7.544254253734 
      7.544241396402 
      7.563630648727 
      7.563623671153 
      7.588025273066 
      7.527322651497 
      7.527348627187 
      7.527344625123 
      7.531664851523 
      7.531650699284 
      7.544526855804 
      7.544408682804 
      7.544419801624 
      7.544425366828 
      7.531690614317 
      7.531673367672 
      7.527269207040 
      7.587791811778 
      7.587786639057 
      7.587800365577 
      7.563695419097 
      7.563679004187 
      7.544037468650 
      7.639082795997 
      7.639063748428 
      7.639080806081 
      7.613626834804 
      7.613617860777 
      7.587282983728 
      7.678763181782 
      7.678735784718 
      7.678749799032 
      7.661346008192 
      7.661349979149 
      7.638642465519 
      7.693463435190 
      7.693436347928 
      7.693441849102 
      7.689762577674 
      7.689778962097 
      7.678523292660 
      7.678615101705 
      7.678598903622 
      7.678592873889 
      7.689742219228 
      7.689764131131 
      7.693477951406 
      7.638820396789 
      7.638823650668 
      7.638807964062 
      7.661289970917 
      7.661307420965 
      7.678896560468 
      7.587505346206 
      7.587528332907 
      7.587510212068 
      7.613552150279 
      7.613557483500 
      7.639311985187 
      7.544222289470 
      7.544254253731 
      7.544241396394 
      7.563630648749 
      7.563623671166 
      7.588025272972 
      7.527322651503 
      7.527348627188 
      7.527344625123 
      7.531664851525 
      7.531650699285 
      7.544526855790 
      7.544408682805 
      7.544419801624 
      7.544425366828 
      7.531690614318 
      7.531673367672 
      7.527269207038 
      7.587791811778 
      7.587786639057 
      7.587800365577 
      7.563695419097 
      7.563679004187 
      7.544037468650 
      7.639082795997 
      7.639063748428 
      7.639080806081 
      7.613626834804 
      7.613617860777 
      7.587282983728 
      7.678763181782 
      7.678735784718 
      7.678749799032 
      7.661346008192 
      7.661349979149 
      7.638642465519 
      7.693463435190 
      7.693436347928 
      7.693441849102 
      7.689762577674 
      7.689778962097 
      7.678523292660 
      7.678615101705 
      7.678598903622 
      7.678592873889 
      7.689742219228 
      7.689764131131 
      7.693477951406 
      7.638820396789 
      7.638823650668 
      7.638807964062 
      7.661289970917 
      7.661307420965 
      7.678896560468 
      7.587505346206 
      7.587528332907 
      7.587510212068 
      7.613552150279 
      7.613557483500 
      7.639311985187 
      7.544222289470 
      7.544254253731 
      7.544241396394 
      7.563630648749 
      7.563623671166 
      7.588025272972 
      7.527322651503 
      7.527348627188 
      7.527344625123 
      7.531664851525 
      7.531650699285 
      7.544526855791 
      7.544408682804 
      7.544419801627 
      7.544425366833 
      7.531690614316 
      7.531673367671 
      7.527269207040 
      7.587791811765 
      7.587786639072 
      7.587800365617 
      7.563695419085 
      7.563679004178 
      7.544037468665 
      7.639082795835 
      7.639063748456 
      7.639080806333 
      7.613626834736 
      7.613617860706 
      7.587282983823 
      7.678763180524 
      7.678735784074 
      7.678749799497 
      7.661346007988 
      7.661349978666 
      7.638642466117 
      7.693463428894 
      7.693436339764 
      7.693441840512 
      7.689762578676 
      7.689778960743 
      7.678523295115 
      7.678615089955 
      7.678598869006 
      7.678592808936 
      7.689742233923 
      7.689764141490 
      7.693477947614 
      7.638820490512 
      7.638823711689 
      7.638807959943 
      7.661290013013 
      7.661307496122 
      7.678896474430 
      7.587505697800 
      7.587528853850 
      7.587510952479 
      7.613551958391 
      7.613557399971 
      7.639311872410 
      7.544220644572 
      7.544253157831 
      7.544241167771 
      7.563630341111 
      7.563623211472 
      7.588025847783 
      7.527323385258 
      7.527348512524 
      7.527343962058 
      7.531664985449 
      7.531650445226 
      7.544526951431 
      7.544411336991 
      7.544421426286 
      7.544424983701 
      7.531692448612 
      7.531674896468 
      7.527269322360 
      7.587791917298 
      7.587786915375 
      7.587799971651 
      7.563696405906 
      7.563680050410 
      7.544037610695 
      7.639081871774 
      7.639062265157 
      7.639079482506 
      7.613626029629 
      7.613616976438 
      7.587282111877 
      7.678758446795 
      7.678734827999 
      7.678747924646 
      7.661343177816 
      7.661348398372 
      7.638639435989 
      7.693464672246 
      7.693431340443 
      7.693443351972 
      7.689755950249 
      7.689783409512 
      7.678521089784 
      7.693434949347 
      7.689785241987 
      7.678522608481 
      7.693432114611 
      7.689760582535 
      7.693471958089 
      7.678750252365 
      7.661353604750 
      7.638642178737 
      7.678729123513 
      7.661342407150 
      7.678769337659 
      7.639086077355 
      7.613622364065 
      7.587283462751 
      7.639058012257 
      7.613621496279 
      7.639089974575 
      7.587809543754 
      7.563684322712 
      7.544039880121 
      7.587782636420 
      7.563689421615 
      7.587802104039 
      7.544431313813 
      7.531676036859 
      7.527272860392 
      7.544418119432 
      7.531685391587 
      7.544418660857 
      7.527345122212 
      7.531650021365 
      7.544528712227 
      7.527349948232 
      7.531661478589 
      7.527326153152 
      7.544236510172 
      7.563619704312 
      7.588024856186 
      7.544258380959 
      7.563630903877 
      7.544217165969 
      7.587503442361 
      7.613553429139 
      7.639312094187 
      7.587533902270 
      7.613557700839 
      7.587493968827 
      7.638803917949 
      7.661304918672 
      7.678896657802 
      7.638828654737 
      7.661298406275 
      7.638808146509 
      7.678590694666 
      7.689762587949 
      7.693476077681 
      7.678601096711 
      7.689749130206 
      7.678608087913 
      7.693439818580 
      7.689777693602 
      7.678519471686 
      7.693434310347 
      7.689764662815 
      7.693462922528 
      7.678749761439 
      7.661350335375 
      7.638639412824 
      7.678730625296 
      7.661342943620 
      7.678767816656 
      7.639086156309 
      7.613621672232 
      7.587283304321 
      7.639058320247 
      7.613620838906 
      7.639091276917 
      7.587809871543 
      7.563684900277 
      7.544040712389 
      7.587783230663 
      7.563689038280 
      7.587802673747 
      7.544432493643 
      7.531677263827 
      7.527272430033 
      7.544418816198 
      7.531685397534 
      7.544418453127 
      7.527344532652 
      7.531650150251 
      7.544527907173 
      7.527349816518 
      7.531661890530 
      7.527326461491 
      7.544235408128 
      7.563619738818 
      7.588025055239 
      7.544257678607 
      7.563631358579 
      7.544217106526 
      7.587503548711 
      7.613553290488 
      7.639312283945 
      7.587533580781 
      7.613557588347 
      7.587493364480 
      7.638804074758 
      7.661304871836 
      7.678896717839 
      7.638828792142 
      7.661298313081 
      7.638808209255 
      7.678590738108 
      7.689762588560 
      7.693476068701 
      7.678601153019 
      7.689749127414 
      7.678608149052 
      7.693439820373 
      7.689777696559 
      7.678519465332 
      7.693434312892 
      7.689764665942 
      7.693462927824 
      7.678749759740 
      7.661350336164 
      7.638639411610 
      7.678730623947 
      7.661342944285 
      7.678767815823 
      7.639086155753 
      7.613621672346 
      7.587283304207 
      7.639058319884 
      7.613620838994 
      7.639091276680 
      7.587809871446 
      7.563684900286 
      7.544040712386 
      7.587783230604 
      7.563689038291 
      7.587802673714 
      7.544432493631 
      7.531677263827 
      7.527272430034 
      7.544418816190 
      7.531685397535 
      7.544418453123 
      7.527344532651 
      7.531650150251 
      7.544527907173 
      7.527349816517 
      7.531661890531 
      7.527326461491 
      7.544235408128 
      7.563619738818 
      7.588025055239 
      7.544257678607 
      7.563631358579 
      7.544217106526 
      7.587503548711 
      7.613553290488 
      7.639312283945 
      7.587533580781 
      7.613557588347 
      7.587493364479 
      7.638804074758 
      7.661304871836 
      7.678896717839 
      7.638828792142 
      7.661298313081 
      7.638808209255 
      7.678590738108 
      7.689762588560 
      7.693476068701 
      7.678601153019 
      7.689749127414 
      7.678608149052 
      7.693439820373 
      7.689777696559 
      7.678519465332 
      7.693434312892 
      7.689764665942 
      7.693462927824 
      7.678749759740 
      7.661350336164 
      7.638639411610 
      7.678730623947 
      7.661342944285 
      7.678767815823 
      7.639086155753 
      7.613621672346 
      7.587283304207 
      7.639058319884 
      7.613620838994 
      7.639091276680 
      7.587809871446 
      7.563684900286 
      7.544040712386 
      7.587783230604 
      7.563689038291 
      7.587802673714 
      7.544432493631 
      7.531677263827 
      7.527272430034 
      7.544418816190 
      7.531685397535 
      7.544418453123 
      7.527344532652 
      7.531650150251 
      7.544527907175 
      7.527349816518 
      7.531661890529 
      7.527326461491 
      7.544235408133 
      7.563619738815 
      7.588025055259 
      7.544257678613 
      7.563631358568 
      7.544217106531 
      7.587503548748 
      7.613553290458 
      7.639312284064 
      7.587533580828 
      7.613557588277 
      7.587493364564 
      7.638804075075 
      7.661304871590 
      7.678896717646 
      7.638828792492 
      7.661298312617 
      7.638808209974 
      7.678590739685 
      7.689762588032 
      7.693476058579 
      7.678601154941 
      7.689749125438 
      7.678608152418 
      7.693439817979 
      7.689777706448 
      7.678519405682 
      7.693434315814 
      7.689764671090 
      7.693462933066 
      7.678749697770 
      7.661350395614 
      7.638639449445 
      7.678730583538 
      7.661343030295 
      7.678767789315 
      7.639086056697 
      7.613621565117 
      7.587284077520 
      7.639058150156 
      7.613620919677 
      7.639091152235 
      7.587810437154 
      7.563684452271 
      7.544040452677 
      7.587783380769 
      7.563688520014 
      7.587802425378 
      7.544432555502 
      7.531677096387 
      7.527271424403 
      7.544419436679 
      7.531685023329 
      7.544419105561 
      7.527344573027 
      7.531651730575 
      7.544527752827 
      7.527350154997 
      7.531661995248 
      7.527326796057 
      7.544235514397 
      7.563620737957 
      7.588024776883 
      7.544257329852 
      7.563631803351 
      7.544216289710 
      7.587502625159 
      7.613552249778 
      7.639311414483 
      7.587533291047 
      7.613558230629 
      7.587493910682 
      7.638801986156 
      7.661303290810 
      7.678897680619 
      7.638828207239 
      7.661298484738 
      7.638809963330 
      7.678595759385 
      7.689759898378 
      7.693480218787 
      7.678603559188 
      7.689748437371 
      7.678609879313 
      7.678609879313 
      7.678603559188 
      7.678595759385 
      7.689748437371 
      7.689759898378 
      7.693480218787 