# vtk DataFile Version 2.0
NDG-FEM NonhydrostaticStandingWave2d Simulation
ASCII
DATASET UNSTRUCTURED_GRID

POINTS 160 double
0.00000000000000000000  0.00000000000000000000  0.00000000000000000000
1.00000000000000000000  0.00000000000000000000  0.00000000000000000000
0.00000000000000000000  1.00000000000000000000  0.00000000000000000000
1.00000000000000000000  1.00000000000000000000  0.00000000000000000000
1.00000000000000000000  0.00000000000000000000  0.00000000000000000000
2.00000000000000000000  0.00000000000000000000  0.00000000000000000000
1.00000000000000000000  1.00000000000000000000  0.00000000000000000000
2.00000000000000000000  1.00000000000000000000  0.00000000000000000000
2.00000000000000000000  0.00000000000000000000  0.00000000000000000000
3.00000000000000000000  0.00000000000000000000  0.00000000000000000000
2.00000000000000000000  1.00000000000000000000  0.00000000000000000000
3.00000000000000000000  1.00000000000000000000  0.00000000000000000000
3.00000000000000000000  0.00000000000000000000  0.00000000000000000000
4.00000000000000000000  0.00000000000000000000  0.00000000000000000000
3.00000000000000000000  1.00000000000000000000  0.00000000000000000000
4.00000000000000000000  1.00000000000000000000  0.00000000000000000000
4.00000000000000000000  0.00000000000000000000  0.00000000000000000000
5.00000000000000000000  0.00000000000000000000  0.00000000000000000000
4.00000000000000000000  1.00000000000000000000  0.00000000000000000000
5.00000000000000000000  1.00000000000000000000  0.00000000000000000000
5.00000000000000000000  0.00000000000000000000  0.00000000000000000000
6.00000000000000000000  0.00000000000000000000  0.00000000000000000000
5.00000000000000000000  1.00000000000000000000  0.00000000000000000000
6.00000000000000000000  1.00000000000000000000  0.00000000000000000000
6.00000000000000000000  0.00000000000000000000  0.00000000000000000000
7.00000000000000000000  0.00000000000000000000  0.00000000000000000000
6.00000000000000000000  1.00000000000000000000  0.00000000000000000000
7.00000000000000000000  1.00000000000000000000  0.00000000000000000000
7.00000000000000000000  0.00000000000000000000  0.00000000000000000000
8.00000000000000000000  0.00000000000000000000  0.00000000000000000000
7.00000000000000000000  1.00000000000000000000  0.00000000000000000000
8.00000000000000000000  1.00000000000000000000  0.00000000000000000000
8.00000000000000000000  0.00000000000000000000  0.00000000000000000000
9.00000000000000000000  0.00000000000000000000  0.00000000000000000000
8.00000000000000000000  1.00000000000000000000  0.00000000000000000000
9.00000000000000000000  1.00000000000000000000  0.00000000000000000000
9.00000000000000000000  0.00000000000000000000  0.00000000000000000000
10.00000000000000000000  0.00000000000000000000  0.00000000000000000000
9.00000000000000000000  1.00000000000000000000  0.00000000000000000000
10.00000000000000000000  1.00000000000000000000  0.00000000000000000000
10.00000000000000000000  0.00000000000000000000  0.00000000000000000000
11.00000000000000000000  0.00000000000000000000  0.00000000000000000000
10.00000000000000000000  1.00000000000000000000  0.00000000000000000000
11.00000000000000000000  1.00000000000000000000  0.00000000000000000000
11.00000000000000000000  0.00000000000000000000  0.00000000000000000000
12.00000000000000000000  0.00000000000000000000  0.00000000000000000000
11.00000000000000000000  1.00000000000000000000  0.00000000000000000000
12.00000000000000000000  1.00000000000000000000  0.00000000000000000000
12.00000000000000000000  0.00000000000000000000  0.00000000000000000000
13.00000000000000000000  0.00000000000000000000  0.00000000000000000000
12.00000000000000000000  1.00000000000000000000  0.00000000000000000000
13.00000000000000000000  1.00000000000000000000  0.00000000000000000000
13.00000000000000000000  0.00000000000000000000  0.00000000000000000000
14.00000000000000000000  0.00000000000000000000  0.00000000000000000000
13.00000000000000000000  1.00000000000000000000  0.00000000000000000000
14.00000000000000000000  1.00000000000000000000  0.00000000000000000000
14.00000000000000000000  0.00000000000000000000  0.00000000000000000000
15.00000000000000000000  0.00000000000000000000  0.00000000000000000000
14.00000000000000000000  1.00000000000000000000  0.00000000000000000000
15.00000000000000000000  1.00000000000000000000  0.00000000000000000000
15.00000000000000000000  0.00000000000000000000  0.00000000000000000000
16.00000000000000000000  0.00000000000000000000  0.00000000000000000000
15.00000000000000000000  1.00000000000000000000  0.00000000000000000000
16.00000000000000000000  1.00000000000000000000  0.00000000000000000000
16.00000000000000000000  0.00000000000000000000  0.00000000000000000000
17.00000000000000000000  0.00000000000000000000  0.00000000000000000000
16.00000000000000000000  1.00000000000000000000  0.00000000000000000000
17.00000000000000000000  1.00000000000000000000  0.00000000000000000000
17.00000000000000000000  0.00000000000000000000  0.00000000000000000000
18.00000000000000000000  0.00000000000000000000  0.00000000000000000000
17.00000000000000000000  1.00000000000000000000  0.00000000000000000000
18.00000000000000000000  1.00000000000000000000  0.00000000000000000000
18.00000000000000000000  0.00000000000000000000  0.00000000000000000000
19.00000000000000000000  0.00000000000000000000  0.00000000000000000000
18.00000000000000000000  1.00000000000000000000  0.00000000000000000000
19.00000000000000000000  1.00000000000000000000  0.00000000000000000000
19.00000000000000000000  0.00000000000000000000  0.00000000000000000000
20.00000000000000000000  0.00000000000000000000  0.00000000000000000000
19.00000000000000000000  1.00000000000000000000  0.00000000000000000000
20.00000000000000000000  1.00000000000000000000  0.00000000000000000000
0.00000000000000000000  1.00000000000000000000  0.00000000000000000000
1.00000000000000000000  1.00000000000000000000  0.00000000000000000000
0.00000000000000000000  2.00000000000000000000  0.00000000000000000000
1.00000000000000000000  2.00000000000000000000  0.00000000000000000000
1.00000000000000000000  1.00000000000000000000  0.00000000000000000000
2.00000000000000000000  1.00000000000000000000  0.00000000000000000000
1.00000000000000000000  2.00000000000000000000  0.00000000000000000000
2.00000000000000000000  2.00000000000000000000  0.00000000000000000000
2.00000000000000000000  1.00000000000000000000  0.00000000000000000000
3.00000000000000000000  1.00000000000000000000  0.00000000000000000000
2.00000000000000000000  2.00000000000000000000  0.00000000000000000000
3.00000000000000000000  2.00000000000000000000  0.00000000000000000000
3.00000000000000000000  1.00000000000000000000  0.00000000000000000000
4.00000000000000000000  1.00000000000000000000  0.00000000000000000000
3.00000000000000000000  2.00000000000000000000  0.00000000000000000000
4.00000000000000000000  2.00000000000000000000  0.00000000000000000000
4.00000000000000000000  1.00000000000000000000  0.00000000000000000000
5.00000000000000000000  1.00000000000000000000  0.00000000000000000000
4.00000000000000000000  2.00000000000000000000  0.00000000000000000000
5.00000000000000000000  2.00000000000000000000  0.00000000000000000000
5.00000000000000000000  1.00000000000000000000  0.00000000000000000000
6.00000000000000000000  1.00000000000000000000  0.00000000000000000000
5.00000000000000000000  2.00000000000000000000  0.00000000000000000000
6.00000000000000000000  2.00000000000000000000  0.00000000000000000000
6.00000000000000000000  1.00000000000000000000  0.00000000000000000000
7.00000000000000000000  1.00000000000000000000  0.00000000000000000000
6.00000000000000000000  2.00000000000000000000  0.00000000000000000000
7.00000000000000000000  2.00000000000000000000  0.00000000000000000000
7.00000000000000000000  1.00000000000000000000  0.00000000000000000000
8.00000000000000000000  1.00000000000000000000  0.00000000000000000000
7.00000000000000000000  2.00000000000000000000  0.00000000000000000000
8.00000000000000000000  2.00000000000000000000  0.00000000000000000000
8.00000000000000000000  1.00000000000000000000  0.00000000000000000000
9.00000000000000000000  1.00000000000000000000  0.00000000000000000000
8.00000000000000000000  2.00000000000000000000  0.00000000000000000000
9.00000000000000000000  2.00000000000000000000  0.00000000000000000000
9.00000000000000000000  1.00000000000000000000  0.00000000000000000000
10.00000000000000000000  1.00000000000000000000  0.00000000000000000000
9.00000000000000000000  2.00000000000000000000  0.00000000000000000000
10.00000000000000000000  2.00000000000000000000  0.00000000000000000000
10.00000000000000000000  1.00000000000000000000  0.00000000000000000000
11.00000000000000000000  1.00000000000000000000  0.00000000000000000000
10.00000000000000000000  2.00000000000000000000  0.00000000000000000000
11.00000000000000000000  2.00000000000000000000  0.00000000000000000000
11.00000000000000000000  1.00000000000000000000  0.00000000000000000000
12.00000000000000000000  1.00000000000000000000  0.00000000000000000000
11.00000000000000000000  2.00000000000000000000  0.00000000000000000000
12.00000000000000000000  2.00000000000000000000  0.00000000000000000000
12.00000000000000000000  1.00000000000000000000  0.00000000000000000000
13.00000000000000000000  1.00000000000000000000  0.00000000000000000000
12.00000000000000000000  2.00000000000000000000  0.00000000000000000000
13.00000000000000000000  2.00000000000000000000  0.00000000000000000000
13.00000000000000000000  1.00000000000000000000  0.00000000000000000000
14.00000000000000000000  1.00000000000000000000  0.00000000000000000000
13.00000000000000000000  2.00000000000000000000  0.00000000000000000000
14.00000000000000000000  2.00000000000000000000  0.00000000000000000000
14.00000000000000000000  1.00000000000000000000  0.00000000000000000000
15.00000000000000000000  1.00000000000000000000  0.00000000000000000000
14.00000000000000000000  2.00000000000000000000  0.00000000000000000000
15.00000000000000000000  2.00000000000000000000  0.00000000000000000000
15.00000000000000000000  1.00000000000000000000  0.00000000000000000000
16.00000000000000000000  1.00000000000000000000  0.00000000000000000000
15.00000000000000000000  2.00000000000000000000  0.00000000000000000000
16.00000000000000000000  2.00000000000000000000  0.00000000000000000000
16.00000000000000000000  1.00000000000000000000  0.00000000000000000000
17.00000000000000000000  1.00000000000000000000  0.00000000000000000000
16.00000000000000000000  2.00000000000000000000  0.00000000000000000000
17.00000000000000000000  2.00000000000000000000  0.00000000000000000000
17.00000000000000000000  1.00000000000000000000  0.00000000000000000000
18.00000000000000000000  1.00000000000000000000  0.00000000000000000000
17.00000000000000000000  2.00000000000000000000  0.00000000000000000000
18.00000000000000000000  2.00000000000000000000  0.00000000000000000000
18.00000000000000000000  1.00000000000000000000  0.00000000000000000000
19.00000000000000000000  1.00000000000000000000  0.00000000000000000000
18.00000000000000000000  2.00000000000000000000  0.00000000000000000000
19.00000000000000000000  2.00000000000000000000  0.00000000000000000000
19.00000000000000000000  1.00000000000000000000  0.00000000000000000000
20.00000000000000000000  1.00000000000000000000  0.00000000000000000000
19.00000000000000000000  2.00000000000000000000  0.00000000000000000000
20.00000000000000000000  2.00000000000000000000  0.00000000000000000000

CELLS 40 200
4 0 1 3 2 
4 4 5 7 6 
4 8 9 11 10 
4 12 13 15 14 
4 16 17 19 18 
4 20 21 23 22 
4 24 25 27 26 
4 28 29 31 30 
4 32 33 35 34 
4 36 37 39 38 
4 40 41 43 42 
4 44 45 47 46 
4 48 49 51 50 
4 52 53 55 54 
4 56 57 59 58 
4 60 61 63 62 
4 64 65 67 66 
4 68 69 71 70 
4 72 73 75 74 
4 76 77 79 78 
4 80 81 83 82 
4 84 85 87 86 
4 88 89 91 90 
4 92 93 95 94 
4 96 97 99 98 
4 100 101 103 102 
4 104 105 107 106 
4 108 109 111 110 
4 112 113 115 114 
4 116 117 119 118 
4 120 121 123 122 
4 124 125 127 126 
4 128 129 131 130 
4 132 133 135 134 
4 136 137 139 138 
4 140 141 143 142 
4 144 145 147 146 
4 148 149 151 150 
4 152 153 155 154 
4 156 157 159 158 

CELL_TYPES 40
9 9 9 9 9 9 9 9 9 9 9 9 
9 9 9 9 9 9 9 9 9 9 9 9 
9 9 9 9 9 9 9 9 9 9 9 9 
9 9 9 9 

POINT_DATA 160
SCALARS  H  double
LOOKUP_TABLE default
      7.634156749458 
      7.634928515021 
      7.634156749458 
      7.634928515021 
      7.634643941938 
      7.630904633861 
      7.634643941938 
      7.630904633861 
      7.630277433545 
      7.625607074989 
      7.630277433545 
      7.625607074989 
      7.624752916099 
      7.618905560648 
      7.624752916099 
      7.618905560648 
      7.617916218761 
      7.611770151556 
      7.617916218761 
      7.611770151556 
      7.610743228444 
      7.604870419686 
      7.610743228444 
      7.604870419686 
      7.603906346407 
      7.598843039508 
      7.603906346407 
      7.598843039508 
      7.598032304556 
      7.594170406083 
      7.598032304556 
      7.594170406083 
      7.593585145148 
      7.591147646066 
      7.593585145148 
      7.591147646066 
      7.590844571527 
      7.589993696696 
      7.590844571527 
      7.589993696696 
      7.589993696696 
      7.590844571527 
      7.589993696696 
      7.590844571527 
      7.591147646066 
      7.593585145148 
      7.591147646066 
      7.593585145148 
      7.594170406083 
      7.598032304556 
      7.594170406083 
      7.598032304556 
      7.598843039508 
      7.603906346407 
      7.598843039508 
      7.603906346407 
      7.604870419686 
      7.610743228444 
      7.604870419686 
      7.610743228444 
      7.611770151556 
      7.617916218761 
      7.611770151556 
      7.617916218761 
      7.618905560648 
      7.624752916099 
      7.618905560648 
      7.624752916099 
      7.625607074989 
      7.630277433545 
      7.625607074989 
      7.630277433545 
      7.630904633861 
      7.634643941938 
      7.630904633861 
      7.634643941938 
      7.634928515021 
      7.634156749458 
      7.634928515021 
      7.634156749458 
      7.634156749458 
      7.634928515021 
      7.634156749458 
      7.634928515021 
      7.634643941938 
      7.630904633861 
      7.634643941938 
      7.630904633861 
      7.630277433545 
      7.625607074989 
      7.630277433545 
      7.625607074989 
      7.624752916099 
      7.618905560648 
      7.624752916099 
      7.618905560648 
      7.617916218761 
      7.611770151556 
      7.617916218761 
      7.611770151556 
      7.610743228444 
      7.604870419686 
      7.610743228444 
      7.604870419686 
      7.603906346407 
      7.598843039508 
      7.603906346407 
      7.598843039508 
      7.598032304556 
      7.594170406083 
      7.598032304556 
      7.594170406083 
      7.593585145148 
      7.591147646066 
      7.593585145148 
      7.591147646066 
      7.590844571527 
      7.589993696696 
      7.590844571527 
      7.589993696696 
      7.589993696696 
      7.590844571527 
      7.589993696696 
      7.590844571527 
      7.591147646066 
      7.593585145148 
      7.591147646066 
      7.593585145148 
      7.594170406083 
      7.598032304556 
      7.594170406083 
      7.598032304556 
      7.598843039508 
      7.603906346407 
      7.598843039508 
      7.603906346407 
      7.604870419686 
      7.610743228444 
      7.604870419686 
      7.610743228444 
      7.611770151556 
      7.617916218761 
      7.611770151556 
      7.617916218761 
      7.618905560648 
      7.624752916099 
      7.618905560648 
      7.624752916099 
      7.625607074989 
      7.630277433545 
      7.625607074989 
      7.630277433545 
      7.630904633861 
      7.634643941938 
      7.630904633861 
      7.634643941938 
      7.634928515021 
      7.634156749458 
      7.634928515021 
      7.634156749458 
SCALARS  HU  double
LOOKUP_TABLE default
      0.000690389581 
     -0.164825274383 
      0.000690389581 
     -0.164825274383 
     -0.166682594266 
     -0.318373909903 
     -0.166682594266 
     -0.318373909903 
     -0.318811636998 
     -0.437848086968 
     -0.318811636998 
     -0.437848086968 
     -0.438331165421 
     -0.513758067123 
     -0.438331165421 
     -0.513758067123 
     -0.513992631901 
     -0.538691826925 
     -0.513992631901 
     -0.538691826925 
     -0.538719536211 
     -0.510833562891 
     -0.538719536211 
     -0.510833562891 
     -0.510656414975 
     -0.433405708407 
     -0.510656414975 
     -0.433405708407 
     -0.433054089038 
     -0.314301686988 
     -0.433054089038 
     -0.314301686988 
     -0.313830142763 
     -0.165146840094 
     -0.313830142763 
     -0.165146840094 
     -0.164549858201 
     -0.000345116452 
     -0.164549858201 
     -0.000345116452 
      0.000345116452 
      0.164549858201 
      0.000345116452 
      0.164549858201 
      0.165146840094 
      0.313830142763 
      0.165146840094 
      0.313830142763 
      0.314301686988 
      0.433054089038 
      0.314301686988 
      0.433054089038 
      0.433405708407 
      0.510656414975 
      0.433405708407 
      0.510656414975 
      0.510833562891 
      0.538719536211 
      0.510833562891 
      0.538719536211 
      0.538691826925 
      0.513992631901 
      0.538691826925 
      0.513992631901 
      0.513758067123 
      0.438331165421 
      0.513758067123 
      0.438331165421 
      0.437848086968 
      0.318811636998 
      0.437848086968 
      0.318811636998 
      0.318373909903 
      0.166682594266 
      0.318373909903 
      0.166682594266 
      0.164825274383 
     -0.000690389581 
      0.164825274383 
     -0.000690389581 
      0.000690389581 
     -0.164825274383 
      0.000690389581 
     -0.164825274383 
     -0.166682594266 
     -0.318373909903 
     -0.166682594266 
     -0.318373909903 
     -0.318811636998 
     -0.437848086968 
     -0.318811636998 
     -0.437848086968 
     -0.438331165421 
     -0.513758067123 
     -0.438331165421 
     -0.513758067123 
     -0.513992631901 
     -0.538691826925 
     -0.513992631901 
     -0.538691826925 
     -0.538719536211 
     -0.510833562891 
     -0.538719536211 
     -0.510833562891 
     -0.510656414975 
     -0.433405708407 
     -0.510656414975 
     -0.433405708407 
     -0.433054089038 
     -0.314301686988 
     -0.433054089038 
     -0.314301686988 
     -0.313830142763 
     -0.165146840094 
     -0.313830142763 
     -0.165146840094 
     -0.164549858201 
     -0.000345116452 
     -0.164549858201 
     -0.000345116452 
      0.000345116452 
      0.164549858201 
      0.000345116452 
      0.164549858201 
      0.165146840094 
      0.313830142763 
      0.165146840094 
      0.313830142763 
      0.314301686988 
      0.433054089038 
      0.314301686988 
      0.433054089038 
      0.433405708407 
      0.510656414975 
      0.433405708407 
      0.510656414975 
      0.510833562891 
      0.538719536211 
      0.510833562891 
      0.538719536211 
      0.538691826925 
      0.513992631901 
      0.538691826925 
      0.513992631901 
      0.513758067123 
      0.438331165421 
      0.513758067123 
      0.438331165421 
      0.437848086968 
      0.318811636998 
      0.437848086968 
      0.318811636998 
      0.318373909903 
      0.166682594266 
      0.318373909903 
      0.166682594266 
      0.164825274383 
     -0.000690389581 
      0.164825274383 
     -0.000690389581 
SCALARS  HV  double
LOOKUP_TABLE default
      0.000000000000 
      0.000000000000 
      0.000000000000 
      0.000000000000 
      0.000000000000 
      0.000000000000 
      0.000000000000 
     -0.000000000000 
      0.000000000000 
     -0.000000000000 
     -0.000000000000 
     -0.000000000000 
     -0.000000000000 
      0.000000000000 
      0.000000000000 
      0.000000000000 
      0.000000000000 
      0.000000000000 
      0.000000000000 
      0.000000000000 
      0.000000000000 
      0.000000000000 
      0.000000000000 
      0.000000000000 
      0.000000000000 
      0.000000000000 
      0.000000000000 
     -0.000000000000 
      0.000000000000 
      0.000000000000 
     -0.000000000000 
      0.000000000000 
      0.000000000000 
     -0.000000000000 
      0.000000000000 
      0.000000000000 
     -0.000000000000 
      0.000000000000 
      0.000000000000 
     -0.000000000000 
      0.000000000000 
      0.000000000000 
     -0.000000000000 
     -0.000000000000 
      0.000000000000 
      0.000000000000 
     -0.000000000000 
     -0.000000000000 
     -0.000000000000 
     -0.000000000000 
     -0.000000000000 
     -0.000000000000 
     -0.000000000000 
      0.000000000000 
     -0.000000000000 
     -0.000000000000 
      0.000000000000 
      0.000000000000 
     -0.000000000000 
     -0.000000000000 
      0.000000000000 
     -0.000000000000 
     -0.000000000000 
     -0.000000000000 
      0.000000000000 
     -0.000000000000 
     -0.000000000000 
     -0.000000000000 
     -0.000000000000 
      0.000000000000 
     -0.000000000000 
     -0.000000000000 
      0.000000000000 
     -0.000000000000 
     -0.000000000000 
     -0.000000000000 
     -0.000000000000 
      0.000000000000 
     -0.000000000000 
      0.000000000000 
      0.000000000000 
      0.000000000000 
      0.000000000000 
      0.000000000000 
      0.000000000000 
      0.000000000000 
      0.000000000000 
     -0.000000000000 
      0.000000000000 
      0.000000000000 
     -0.000000000000 
      0.000000000000 
      0.000000000000 
     -0.000000000000 
      0.000000000000 
     -0.000000000000 
     -0.000000000000 
      0.000000000000 
     -0.000000000000 
      0.000000000000 
      0.000000000000 
      0.000000000000 
     -0.000000000000 
     -0.000000000000 
      0.000000000000 
      0.000000000000 
     -0.000000000000 
      0.000000000000 
      0.000000000000 
      0.000000000000 
     -0.000000000000 
     -0.000000000000 
      0.000000000000 
     -0.000000000000 
     -0.000000000000 
     -0.000000000000 
     -0.000000000000 
     -0.000000000000 
     -0.000000000000 
     -0.000000000000 
     -0.000000000000 
     -0.000000000000 
     -0.000000000000 
     -0.000000000000 
     -0.000000000000 
     -0.000000000000 
     -0.000000000000 
     -0.000000000000 
     -0.000000000000 
      0.000000000000 
     -0.000000000000 
     -0.000000000000 
      0.000000000000 
      0.000000000000 
     -0.000000000000 
     -0.000000000000 
      0.000000000000 
     -0.000000000000 
     -0.000000000000 
     -0.000000000000 
     -0.000000000000 
     -0.000000000000 
     -0.000000000000 
     -0.000000000000 
      0.000000000000 
      0.000000000000 
     -0.000000000000 
      0.000000000000 
     -0.000000000000 
     -0.000000000000 
     -0.000000000000 
      0.000000000000 
     -0.000000000000 
      0.000000000000 
      0.000000000000 
     -0.000000000000 
     -0.000000000000 
     -0.000000000000 
     -0.000000000000 
      0.000000000000 
SCALARS  HW  double
LOOKUP_TABLE default
      0.616793452971 
      0.638029738961 
      0.616793452971 
      0.638029738961 
      0.626618219252 
      0.530342676536 
      0.626618219252 
      0.530342676536 
      0.520318141615 
      0.385847824308 
      0.520318141615 
      0.385847824308 
      0.375651374411 
      0.200436406696 
      0.375651374411 
      0.200436406696 
      0.193081380855 
     -0.001977290112 
      0.193081380855 
     -0.001977290111 
     -0.005619804726 
     -0.202040184486 
     -0.005619804726 
     -0.202040184486 
     -0.201771711365 
     -0.380131398049 
     -0.201771711365 
     -0.380131398049 
     -0.376803910747 
     -0.519555441591 
     -0.376803910747 
     -0.519555441591 
     -0.514671075343 
     -0.608369941732 
     -0.514671075343 
     -0.608369941732 
     -0.603523258180 
     -0.636902999280 
     -0.603523258180 
     -0.636902999280 
     -0.636902999280 
     -0.603523258180 
     -0.636902999280 
     -0.603523258180 
     -0.608369941732 
     -0.514671075343 
     -0.608369941732 
     -0.514671075343 
     -0.519555441591 
     -0.376803910747 
     -0.519555441591 
     -0.376803910747 
     -0.380131398049 
     -0.201771711365 
     -0.380131398049 
     -0.201771711365 
     -0.202040184486 
     -0.005619804726 
     -0.202040184486 
     -0.005619804726 
     -0.001977290112 
      0.193081380855 
     -0.001977290111 
      0.193081380855 
      0.200436406696 
      0.375651374411 
      0.200436406696 
      0.375651374411 
      0.385847824308 
      0.520318141615 
      0.385847824308 
      0.520318141615 
      0.530342676536 
      0.626618219252 
      0.530342676536 
      0.626618219252 
      0.638029738961 
      0.616793452971 
      0.638029738961 
      0.616793452971 
      0.616793452971 
      0.638029738961 
      0.616793452971 
      0.638029738961 
      0.626618219252 
      0.530342676536 
      0.626618219252 
      0.530342676536 
      0.520318141615 
      0.385847824308 
      0.520318141615 
      0.385847824308 
      0.375651374411 
      0.200436406696 
      0.375651374411 
      0.200436406696 
      0.193081380855 
     -0.001977290111 
      0.193081380855 
     -0.001977290111 
     -0.005619804726 
     -0.202040184486 
     -0.005619804726 
     -0.202040184486 
     -0.201771711365 
     -0.380131398049 
     -0.201771711365 
     -0.380131398049 
     -0.376803910747 
     -0.519555441591 
     -0.376803910747 
     -0.519555441591 
     -0.514671075343 
     -0.608369941732 
     -0.514671075343 
     -0.608369941732 
     -0.603523258180 
     -0.636902999280 
     -0.603523258180 
     -0.636902999280 
     -0.636902999280 
     -0.603523258180 
     -0.636902999280 
     -0.603523258180 
     -0.608369941732 
     -0.514671075343 
     -0.608369941732 
     -0.514671075343 
     -0.519555441591 
     -0.376803910747 
     -0.519555441591 
     -0.376803910747 
     -0.380131398049 
     -0.201771711365 
     -0.380131398049 
     -0.201771711365 
     -0.202040184486 
     -0.005619804726 
     -0.202040184486 
     -0.005619804726 
     -0.001977290111 
      0.193081380855 
     -0.001977290112 
      0.193081380855 
      0.200436406696 
      0.375651374411 
      0.200436406696 
      0.375651374411 
      0.385847824308 
      0.520318141615 
      0.385847824308 
      0.520318141615 
      0.530342676536 
      0.626618219252 
      0.530342676536 
      0.626618219252 
      0.638029738961 
      0.616793452971 
      0.638029738961 
      0.616793452971 
SCALARS  q  double
LOOKUP_TABLE default
     -0.116352115134 
     -0.129011497945 
     -0.116352115134 
     -0.129011497944 
     -0.128987413880 
     -0.100286088060 
     -0.128987413879 
     -0.100286088060 
     -0.101886621940 
     -0.068534449768 
     -0.101886621940 
     -0.068534449768 
     -0.070702878757 
     -0.028296663209 
     -0.070702878757 
     -0.028296663209 
     -0.031059657306 
      0.013440042834 
     -0.031059657306 
      0.013440042834 
      0.010432101262 
      0.053062838544 
      0.010432101262 
      0.053062838544 
      0.050102286672 
      0.086946055520 
      0.050102286672 
      0.086946055520 
      0.084336573722 
      0.112525844520 
      0.084336573722 
      0.112525844520 
      0.110531689880 
      0.128528184629 
      0.110531689880 
      0.128528184629 
      0.127337286658 
      0.133740023753 
      0.127337286658 
      0.133740023753 
      0.133740023753 
      0.127337286658 
      0.133740023753 
      0.127337286658 
      0.128528184629 
      0.110531689880 
      0.128528184629 
      0.110531689880 
      0.112525844520 
      0.084336573722 
      0.112525844520 
      0.084336573722 
      0.086946055520 
      0.050102286672 
      0.086946055520 
      0.050102286672 
      0.053062838544 
      0.010432101262 
      0.053062838544 
      0.010432101262 
      0.013440042834 
     -0.031059657306 
      0.013440042834 
     -0.031059657306 
     -0.028296663209 
     -0.070702878757 
     -0.028296663209 
     -0.070702878757 
     -0.068534449768 
     -0.101886621940 
     -0.068534449768 
     -0.101886621940 
     -0.100286088060 
     -0.128987413880 
     -0.100286088060 
     -0.128987413880 
     -0.129011497945 
     -0.116352115134 
     -0.129011497945 
     -0.116352115134 
     -0.116352115134 
     -0.129011497944 
     -0.116352115134 
     -0.129011497944 
     -0.128987413879 
     -0.100286088060 
     -0.128987413879 
     -0.100286088060 
     -0.101886621940 
     -0.068534449768 
     -0.101886621940 
     -0.068534449768 
     -0.070702878757 
     -0.028296663209 
     -0.070702878757 
     -0.028296663209 
     -0.031059657306 
      0.013440042834 
     -0.031059657306 
      0.013440042834 
      0.010432101262 
      0.053062838544 
      0.010432101262 
      0.053062838544 
      0.050102286672 
      0.086946055520 
      0.050102286672 
      0.086946055520 
      0.084336573722 
      0.112525844520 
      0.084336573722 
      0.112525844520 
      0.110531689880 
      0.128528184629 
      0.110531689880 
      0.128528184629 
      0.127337286658 
      0.133740023753 
      0.127337286658 
      0.133740023753 
      0.133740023753 
      0.127337286658 
      0.133740023753 
      0.127337286658 
      0.128528184629 
      0.110531689880 
      0.128528184629 
      0.110531689880 
      0.112525844520 
      0.084336573722 
      0.112525844520 
      0.084336573722 
      0.086946055520 
      0.050102286672 
      0.086946055520 
      0.050102286672 
      0.053062838544 
      0.010432101262 
      0.053062838544 
      0.010432101262 
      0.013440042834 
     -0.031059657306 
      0.013440042834 
     -0.031059657306 
     -0.028296663209 
     -0.070702878757 
     -0.028296663209 
     -0.070702878757 
     -0.068534449768 
     -0.101886621940 
     -0.068534449768 
     -0.101886621940 
     -0.100286088060 