# vtk DataFile Version 2.0
NDG-FEM NonhydrostaticStandingWave2d Simulation
ASCII
DATASET UNSTRUCTURED_GRID

POINTS 405 double
0.00000000000000000000  0.00000000000000000000  0.00000000000000000000
1.00000000000000000000  0.00000000000000000000  0.00000000000000000000
2.00000000000000000000  0.00000000000000000000  0.00000000000000000000
0.00000000000000000000  1.00000000000000000000  0.00000000000000000000
1.00000000000000000000  1.00000000000000000000  0.00000000000000000000
2.00000000000000000000  1.00000000000000000000  0.00000000000000000000
0.00000000000000000000  2.00000000000000000000  0.00000000000000000000
1.00000000000000000000  2.00000000000000000000  0.00000000000000000000
2.00000000000000000000  2.00000000000000000000  0.00000000000000000000
2.00000000000000000000  0.00000000000000000000  0.00000000000000000000
3.00000000000000000000  0.00000000000000000000  0.00000000000000000000
4.00000000000000000000  0.00000000000000000000  0.00000000000000000000
2.00000000000000000000  1.00000000000000000000  0.00000000000000000000
3.00000000000000000000  1.00000000000000000000  0.00000000000000000000
4.00000000000000000000  1.00000000000000000000  0.00000000000000000000
2.00000000000000000000  2.00000000000000000000  0.00000000000000000000
3.00000000000000000000  2.00000000000000000000  0.00000000000000000000
4.00000000000000000000  2.00000000000000000000  0.00000000000000000000
4.00000000000000000000  0.00000000000000000000  0.00000000000000000000
5.00000000000000000000  0.00000000000000000000  0.00000000000000000000
6.00000000000000000000  0.00000000000000000000  0.00000000000000000000
4.00000000000000000000  1.00000000000000000000  0.00000000000000000000
5.00000000000000000000  1.00000000000000000000  0.00000000000000000000
6.00000000000000000000  1.00000000000000000000  0.00000000000000000000
4.00000000000000000000  2.00000000000000000000  0.00000000000000000000
5.00000000000000000000  2.00000000000000000000  0.00000000000000000000
6.00000000000000000000  2.00000000000000000000  0.00000000000000000000
6.00000000000000000000  0.00000000000000000000  0.00000000000000000000
7.00000000000000000000  0.00000000000000000000  0.00000000000000000000
8.00000000000000000000  0.00000000000000000000  0.00000000000000000000
6.00000000000000000000  1.00000000000000000000  0.00000000000000000000
7.00000000000000000000  1.00000000000000000000  0.00000000000000000000
8.00000000000000000000  1.00000000000000000000  0.00000000000000000000
6.00000000000000000000  2.00000000000000000000  0.00000000000000000000
7.00000000000000000000  2.00000000000000000000  0.00000000000000000000
8.00000000000000000000  2.00000000000000000000  0.00000000000000000000
8.00000000000000000000  0.00000000000000000000  0.00000000000000000000
9.00000000000000000000  0.00000000000000000000  0.00000000000000000000
10.00000000000000000000  0.00000000000000000000  0.00000000000000000000
8.00000000000000000000  1.00000000000000000000  0.00000000000000000000
9.00000000000000000000  1.00000000000000000000  0.00000000000000000000
10.00000000000000000000  1.00000000000000000000  0.00000000000000000000
8.00000000000000000000  2.00000000000000000000  0.00000000000000000000
9.00000000000000000000  2.00000000000000000000  0.00000000000000000000
10.00000000000000000000  2.00000000000000000000  0.00000000000000000000
10.00000000000000000000  0.00000000000000000000  0.00000000000000000000
11.00000000000000000000  0.00000000000000000000  0.00000000000000000000
12.00000000000000000000  0.00000000000000000000  0.00000000000000000000
10.00000000000000000000  1.00000000000000000000  0.00000000000000000000
11.00000000000000000000  1.00000000000000000000  0.00000000000000000000
12.00000000000000000000  1.00000000000000000000  0.00000000000000000000
10.00000000000000000000  2.00000000000000000000  0.00000000000000000000
11.00000000000000000000  2.00000000000000000000  0.00000000000000000000
12.00000000000000000000  2.00000000000000000000  0.00000000000000000000
12.00000000000000000000  0.00000000000000000000  0.00000000000000000000
13.00000000000000000000  0.00000000000000000000  0.00000000000000000000
14.00000000000000000000  0.00000000000000000000  0.00000000000000000000
12.00000000000000000000  1.00000000000000000000  0.00000000000000000000
13.00000000000000000000  1.00000000000000000000  0.00000000000000000000
14.00000000000000000000  1.00000000000000000000  0.00000000000000000000
12.00000000000000000000  2.00000000000000000000  0.00000000000000000000
13.00000000000000000000  2.00000000000000000000  0.00000000000000000000
14.00000000000000000000  2.00000000000000000000  0.00000000000000000000
14.00000000000000000000  0.00000000000000000000  0.00000000000000000000
15.00000000000000000000  0.00000000000000000000  0.00000000000000000000
16.00000000000000000000  0.00000000000000000000  0.00000000000000000000
14.00000000000000000000  1.00000000000000000000  0.00000000000000000000
15.00000000000000000000  1.00000000000000000000  0.00000000000000000000
16.00000000000000000000  1.00000000000000000000  0.00000000000000000000
14.00000000000000000000  2.00000000000000000000  0.00000000000000000000
15.00000000000000000000  2.00000000000000000000  0.00000000000000000000
16.00000000000000000000  2.00000000000000000000  0.00000000000000000000
16.00000000000000000000  0.00000000000000000000  0.00000000000000000000
17.00000000000000000000  0.00000000000000000000  0.00000000000000000000
18.00000000000000000000  0.00000000000000000000  0.00000000000000000000
16.00000000000000000000  1.00000000000000000000  0.00000000000000000000
17.00000000000000000000  1.00000000000000000000  0.00000000000000000000
18.00000000000000000000  1.00000000000000000000  0.00000000000000000000
16.00000000000000000000  2.00000000000000000000  0.00000000000000000000
17.00000000000000000000  2.00000000000000000000  0.00000000000000000000
18.00000000000000000000  2.00000000000000000000  0.00000000000000000000
18.00000000000000000000  0.00000000000000000000  0.00000000000000000000
19.00000000000000000000  0.00000000000000000000  0.00000000000000000000
20.00000000000000000000  0.00000000000000000000  0.00000000000000000000
18.00000000000000000000  1.00000000000000000000  0.00000000000000000000
19.00000000000000000000  1.00000000000000000000  0.00000000000000000000
20.00000000000000000000  1.00000000000000000000  0.00000000000000000000
18.00000000000000000000  2.00000000000000000000  0.00000000000000000000
19.00000000000000000000  2.00000000000000000000  0.00000000000000000000
20.00000000000000000000  2.00000000000000000000  0.00000000000000000000
20.00000000000000000000  0.00000000000000000000  0.00000000000000000000
21.00000000000000000000  0.00000000000000000000  0.00000000000000000000
22.00000000000000000000  0.00000000000000000000  0.00000000000000000000
20.00000000000000000000  1.00000000000000000000  0.00000000000000000000
21.00000000000000000000  1.00000000000000000000  0.00000000000000000000
22.00000000000000000000  1.00000000000000000000  0.00000000000000000000
20.00000000000000000000  2.00000000000000000000  0.00000000000000000000
21.00000000000000000000  2.00000000000000000000  0.00000000000000000000
22.00000000000000000000  2.00000000000000000000  0.00000000000000000000
22.00000000000000000000  0.00000000000000000000  0.00000000000000000000
23.00000000000000000000  0.00000000000000000000  0.00000000000000000000
24.00000000000000000000  0.00000000000000000000  0.00000000000000000000
22.00000000000000000000  1.00000000000000000000  0.00000000000000000000
23.00000000000000000000  1.00000000000000000000  0.00000000000000000000
24.00000000000000000000  1.00000000000000000000  0.00000000000000000000
22.00000000000000000000  2.00000000000000000000  0.00000000000000000000
23.00000000000000000000  2.00000000000000000000  0.00000000000000000000
24.00000000000000000000  2.00000000000000000000  0.00000000000000000000
24.00000000000000000000  0.00000000000000000000  0.00000000000000000000
25.00000000000000000000  0.00000000000000000000  0.00000000000000000000
26.00000000000000000000  0.00000000000000000000  0.00000000000000000000
24.00000000000000000000  1.00000000000000000000  0.00000000000000000000
25.00000000000000000000  1.00000000000000000000  0.00000000000000000000
26.00000000000000000000  1.00000000000000000000  0.00000000000000000000
24.00000000000000000000  2.00000000000000000000  0.00000000000000000000
25.00000000000000000000  2.00000000000000000000  0.00000000000000000000
26.00000000000000000000  2.00000000000000000000  0.00000000000000000000
26.00000000000000000000  0.00000000000000000000  0.00000000000000000000
27.00000000000000000000  0.00000000000000000000  0.00000000000000000000
28.00000000000000000000  0.00000000000000000000  0.00000000000000000000
26.00000000000000000000  1.00000000000000000000  0.00000000000000000000
27.00000000000000000000  1.00000000000000000000  0.00000000000000000000
28.00000000000000000000  1.00000000000000000000  0.00000000000000000000
26.00000000000000000000  2.00000000000000000000  0.00000000000000000000
27.00000000000000000000  2.00000000000000000000  0.00000000000000000000
28.00000000000000000000  2.00000000000000000000  0.00000000000000000000
28.00000000000000000000  0.00000000000000000000  0.00000000000000000000
29.00000000000000000000  0.00000000000000000000  0.00000000000000000000
30.00000000000000000000  0.00000000000000000000  0.00000000000000000000
28.00000000000000000000  1.00000000000000000000  0.00000000000000000000
29.00000000000000000000  1.00000000000000000000  0.00000000000000000000
30.00000000000000000000  1.00000000000000000000  0.00000000000000000000
28.00000000000000000000  2.00000000000000000000  0.00000000000000000000
29.00000000000000000000  2.00000000000000000000  0.00000000000000000000
30.00000000000000000000  2.00000000000000000000  0.00000000000000000000
0.00000000000000000000  2.00000000000000000000  0.00000000000000000000
1.00000000000000000000  2.00000000000000000000  0.00000000000000000000
[...]
POINT_DATA 405
SCALARS  H  double
LOOKUP_TABLE default
      7.685854057397 
      7.682370774429 
      7.671082304643 
      7.686044604214 
      7.682269128599 
      7.671166662564 
      7.686206170488 
      7.682269413591 
      7.671221173367 
      7.671392815719 
      7.654273434281 
      7.633301188683 
      7.671432690517 
      7.654268171729 
      7.633297164813 
      7.671437154489 
      7.654248306188 
      7.633318150190 
      7.633456301774 
      7.610607352661 
      7.588273057547 
      7.633463052457 
      7.610612841186 
      7.588269149061 
      7.633480967472 
      7.610616510953 
      7.588270036538 
      7.588424008663 
      7.568823435080 
      7.553265202762 
      7.588421844268 
      7.568822760479 
      7.553266331287 
      7.588419207426 
      7.568820671081 
      7.553269753942 
      7.553341418827 
      7.543821855844 
      7.540254385127 
      7.553343284959 
      7.543821381946 
      7.540254434706 
      7.553346987170 
      7.543820304783 
      7.540254657612 
      7.540253680985 
      7.543823741835 
      7.553339589967 
      7.540254313135 
      7.543823769430 
      7.553339395251 
      7.540255413965 
      7.543823859889 
      7.553339074663 
      7.553260763964 
      7.568806086931 
      7.588419246513 
      7.553260767266 
      7.568806146643 
      7.588419162717 
      7.553260678697 
      7.568806232377 
      7.588419094824 
      7.588271372159 
      7.610675864837 
      7.633580203351 
      7.588271336690 
      7.610675874388 
      7.633580221953 
      7.588271270761 
      7.610675872720 
      7.633580235583 
      7.633400462467 
      7.654375706406 
      7.671593048534 
      7.633400500619 
      7.654375674873 
      7.671593128478 
      7.633400516527 
      7.654375670514 
      7.671593073427 
      7.671462617083 
      7.682317586680 
      7.686419187973 
      7.671462763532 
      7.682317577514 
      7.686419198927 
      7.671462702353 
      7.682317628501 
      7.686419403994 
      7.686421225269 
      7.682322965870 
      7.671443886221 
      7.686421440225 
      7.682322900544 
      7.671443810411 
      7.686421404005 
      7.682322533906 
      7.671445264468 
      7.671573318183 
      7.654364954583 
      7.633425958968 
      7.671573536549 
      7.654365126171 
      7.633423733532 
      7.671575267899 
      7.654364206624 
      7.633419719355 
      7.633596388043 
      7.610721795443 
      7.588375954487 
      7.633595828711 
      7.610723638619 
      7.588369344004 
      7.633594366267 
      7.610728099926 
      7.588356091815 
      7.588516319348 
      7.568904470140 
      7.553397781829 
      7.588510994350 
      7.568912733703 
      7.553402613676 
      7.588493251977 
      7.568932291427 
      7.553388893526 
      7.553600759838 
      7.543921239470 
      7.540370714834 
      7.553598981520 
      7.543891128008 
      7.540460332937 
      7.553552784769 
      7.543872045191 
      7.540471181309 
      7.686156511979 
      7.682280120324 
      7.671212716205 
      7.686135553375 
      7.682253608378 
      7.671215389123 
      7.686201181445 
      7.682202959058 
      7.671225581193 
      7.671427169188 
      7.654249243741 
      7.633316890345 
      7.671465908299 
      7.654238930689 
      7.633311304454 
      7.671514016469 
      7.654240437077 
      7.633300187967 
      7.633479550347 
      7.610615793032 
      7.588270918536 
      7.633487949431 
      7.610625626656 
      7.588264225448 
      7.633491423433 
      7.610632262400 
      7.588254368402 
      7.588420096407 
      7.568820594460 
      7.553269524667 
      7.588412665898 
      7.568819055138 
      7.553272291737 
      7.588403445897 
      7.568821146556 
      7.553271798067 
      7.553346858888 
      7.543820430734 
      7.540254578841 
      7.553350094587 
      7.543819507884 
      7.540254397954 
      7.553348886078 
      7.543819298280 
      7.540254508097 
      7.540255292010 
      7.543823891946 
      7.553339073818 
      7.540256034756 
      7.543824145111 
      7.553338567080 
      7.540256099714 
      7.543824165140 
      7.553338511851 
      7.553260646732 
      7.568806228907 
      7.588419103223 
      7.553260329323 
      7.568806367289 
      7.588418967640 
      7.553260259099 
      7.568806391436 
      7.588418942033 
      7.588271271451 
      7.610675872172 
      7.633580235512 
      7.588271113017 
      7.610675912214 
      7.633580127419 
      7.588271078898 
      7.610675928361 
      7.633580049762 
      7.633400509819 
      7.654375674513 
      7.671593082375 
      7.633400347819 
      7.654375794903 
      7.671593017696 
      7.633400275502 
      7.654375865323 
      7.671592960508 
      7.671462685692 
      7.682317642359 
      7.686419449973 
      7.671462288808 
      7.682317708063 
      7.686420961182 
      7.671462123198 
      7.682317698564 
      7.686421686309 
      7.686421380979 
      7.682322529874 
      7.671445582666 
      7.686421957306 
      7.682321034048 
      7.671449609189 
      7.686422473544 
      7.682320214644 
      7.671449069315 
      7.671575367620 
      7.654363928951 
      7.633420785412 
      7.671579687925 
      7.654362560225 
      7.633416966439 
      7.671580416267 
      7.654364826058 
      7.633407077153 
      7.633595436188 
      7.610727352117 
      7.588357480311 
      7.633595047633 
      7.610730662556 
      7.588371430797 
      7.633586633557 
      7.610736025068 
      7.588379821296 
      7.588496738138 
      7.568930434770 
      7.553391083513 
      7.588512932650 
      7.568912930927 
      7.553399657004 
      7.588514086789 
      7.568907934954 
      7.553385142524 
      7.553582342763 
      7.543865537033 
      7.540555376284 
      7.553568790084 
      7.543858283956 
      7.540514478437 
      7.553602430203 
      7.543859355548 
      7.540588721505 
      7.686157672459 
      7.682227005730 
      7.671196707035 
      7.686212633544 
      7.682225352713 
      7.671207655188 
      7.686308903225 
      7.682159689959 
      7.671294170990 
      7.671499343308 
      7.654241759789 
      7.633301305878 
      7.671501222021 
      7.654250962516 
      7.633294158236 
      7.671569902506 
      7.654248510165 
      7.633294713618 
      7.633491125340 
      7.610632254998 
      7.588254408424 
      7.633489307387 
      7.610631174263 
      7.588251308125 
      7.633495668195 
      7.610631589230 
      7.588249410369 
      7.588403033226 
      7.568821229951 
      7.553271892613 
      7.588399786281 
      7.568822465805 
      7.553272115883 
      7.588398842035 
      7.568823052561 
      7.553271848178 
      7.553348841434 
      7.543819268677 
      7.540254571961 
      7.553347954455 
      7.543818833161 
      7.540255284779 
      7.553347689700 
      7.543818778242 
      7.540255339479 
      7.540256131517 
      7.543824157028 
      7.553338530172 
      7.540256685035 
      7.543823967699 
      7.553338642123 
      7.540256782733 
      7.543823961424 
      7.553338589054 
      7.553260270948 
      7.568806387726 
      7.588418951255 
      7.553260451560 
      7.568806383233 
      7.588418896672 
      7.553260465154 
      7.568806414509 
      7.588418827980 
      7.588271085476 
      7.610675923970 
      7.633580059899 
      7.588271064725 
      7.610675963041 
      7.633579966134 
      7.588271011870 
      7.610675996759 
      7.633579869012 
      7.633400289361 
      7.654375854370 
      7.671592967741 
      7.633400151870 
      7.654375946015 
      7.671593045362 
      7.633400032743 
      7.654376018332 
      7.671592947654 
      7.671462155911 
      7.682317690750 
      7.686421633273 
      7.671461944914 
      7.682317600661 
      7.686422952392 
      7.671461694455 
      7.682317669963 
      7.686423287332 
      7.686422496932 
      7.682320245742 
      7.671449057212 
      7.686423280489 
      7.682319081536 
      7.671450357943 
      7.686423295382 
      7.682318787813 
      7.671450133182 
      7.671580519575 
      7.654364746873 
      7.633406925188 
      7.671582784898 
      7.654365422899 
      7.633401687449 
      7.671582462601 
      7.654366531688 
      7.633395663326 
      7.633586964783 
      7.610736011363 
      7.588378196263 
      7.633583874210 
      7.610737737932 
      7.588387977404 
      7.633575585762 
      7.610742686926 
      7.588383424277 
      7.588513024248 
      7.568909851495 
      7.553372704180 
      7.588523596450 
      7.568904121666 
      7.553379347487 
      7.588501072473 
      7.568911977272 
      7.553420758079 
      7.553561087288 
      7.543879185728 
      7.540511990003 
      7.553548892464 
      7.543905387379 
      7.540340147180 
      7.553604662172 
      7.543844661000 
      7.540525488629 
SCALARS  HU  double
LOOKUP_TABLE default
      0.002106118438 
     -0.184303686539 
     -0.347863396580 
      0.001234691671 
     -0.184565679433 
     -0.347801291617 
      0.001313136992 
     -0.184369390793 
     -0.348041524375 
     -0.347134011982 
     -0.479526267670 
     -0.562651786011 
     -0.346739603292 
     -0.479586631682 
     -0.562652334492 
     -0.346703220550 
     -0.479709021580 
     -0.562502904066 
     -0.562052397385 
     -0.592251233815 
     -0.560893013560 
     -0.561968797269 
     -0.592219539693 
     -0.560913660343 
     -0.561837408281 
     -0.592188441758 
     -0.560912866315 
     -0.562010596142 
     -0.478260443500 
     -0.345560893593 
     -0.562025754551 
     -0.478264482169 
     -0.345552675650 
     -0.562053372818 
     -0.478283107143 
     -0.345524572105 
     -0.348092728454 
     -0.182618735794 
      0.001481488362 
     -0.348077284990 
     -0.182623008235 
      0.001480730836 
     -0.348047313429 
     -0.182631503298 
      0.001482382991 
     -0.001509847827 
      0.182616668416 
      0.348117342340 
     -0.001504187975 
      0.182617162853 
      0.348115312048 
     -0.001495254545 
      0.182617964904 
      0.348112511799 
      0.345596472983 
      0.478399051655 
      0.562056917620 
      0.345596691636 
      0.478399499946 
      0.562055991544 
      0.345595802718 
      0.478400311565 
      0.562055154252 
      0.560902341431 
      0.591683778125 
      0.560974858480 
      0.560901914638 
      0.591684035654 
      0.560974414926 
      0.560901174759 
      0.591684198635 
      0.560974324286 
      0.561785416635 
      0.478633715908 
      0.345348145877 
      0.561784988287 
      0.478633919166 
      0.345348069847 
      0.561784805713 
      0.478633852182 
      0.345348633293 
      0.347993207334 
      0.182755989880 
     -0.001698088077 
      0.347992515404 
      0.182756019021 
     -0.001696971609 
      0.347993082292 
      0.182755448247 
     -0.001699439608 
      0.001691343604 
     -0.182781801783 
     -0.347841507634 
      0.001690219252 
     -0.182781227644 
     -0.347839242413 
      0.001689223630 
     -0.182777087603 
     -0.347855294441 
     -0.345182990720 
     -0.478542979473 
     -0.562004704441 
     -0.345188684972 
     -0.478540789686 
     -0.561986348859 
     -0.345205358999 
     -0.478533358990 
     -0.561953424526 
     -0.561106964154 
     -0.592086381516 
     -0.561813901721 
     -0.561105887163 
     -0.592102343592 
     -0.561750721701 
     -0.561094029832 
     -0.592139963631 
     -0.561660843375 
     -0.562893644706 
     -0.479256692831 
     -0.346776881761 
     -0.562846817708 
     -0.479317062296 
     -0.346768354948 
     -0.562741613685 
     -0.479430613205 
     -0.346775899167 
     -0.348271324258 
     -0.184371051763 
      0.001895148600 
     -0.348439885790 
     -0.184088408516 
      0.001462068075 
     -0.347798319552 
     -0.184264066065 
      0.001173204876 
      0.001310023962 
     -0.184255885792 
     -0.348034091949 
      0.001703423850 
     -0.184433511105 
     -0.347856482957 
      0.001596019629 
     -0.184811667295 
     -0.347686938857 
     -0.346777737957 
     -0.479703301829 
     -0.562514391650 
     -0.346442023378 
     -0.479787219377 
     -0.562544127143 
     -0.346052977423 
     -0.479784794469 
     -0.562636812292 
     -0.561852374150 
     -0.592191531509 
     -0.560906519811 
     -0.561760106728 
     -0.592119537300 
     -0.560959917477 
     -0.561721254757 
     -0.592067452267 
     -0.561036262321 
     -0.562045920233 
     -0.478283155866 
     -0.345526206886 
     -0.562111781589 
     -0.478291582348 
     -0.345507098141 
     -0.562182568207 
     -0.478277918580 
     -0.345507640817 
     -0.348047525018 
     -0.182630965718 
      0.001481764624 
     -0.348021959272 
     -0.182638596306 
      0.001480350462 
     -0.348030428951 
     -0.182640927441 
      0.001481777960 
     -0.001496163401 
      0.182618203643 
      0.348112509562 
     -0.001489069013 
      0.182620006450 
      0.348108709131 
     -0.001488426548 
      0.182620298516 
      0.348108109856 
      0.345595542703 
      0.478400296873 
      0.562055211351 
      0.345593198919 
      0.478401350566 
      0.562054638807 
      0.345592363178 
      0.478401606067 
      0.562054705809 
      0.560901160765 
      0.591684178381 
      0.560974370362 
      0.560900168544 
      0.591684083431 
      0.560975285859 
      0.560899909682 
      0.591683947385 
      0.560976096564 
      0.561784879637 
      0.478633808040 
      0.345348608589 
      0.561785824620 
      0.478632848581 
      0.345348915666 
      0.561786463210 
      0.478632170942 
      0.345349569502 
      0.347993249699 
      0.182755408278 
     -0.001699708473 
      0.347996392255 
      0.182755020810 
     -0.001712631376 
      0.347997922198 
      0.182755038507 
     -0.001719095092 
      0.001689614742 
     -0.182777143608 
     -0.347856679467 
      0.001685847882 
     -0.182765233459 
     -0.347887376687 
      0.001680589888 
     -0.182757593728 
     -0.347886166742 
     -0.345205549036 
     -0.478531410328 
     -0.561960195056 
     -0.345237182949 
     -0.478523140700 
     -0.561921225547 
     -0.345249526383 
     -0.478537886851 
     -0.561848201630 
     -0.561101221120 
     -0.592135637219 
     -0.561661479812 
     -0.561094605239 
     -0.592163688052 
     -0.561771588133 
     -0.561035472544 
     -0.592202977921 
     -0.561872697657 
     -0.562763775503 
     -0.479422014086 
     -0.346766941656 
     -0.562869778638 
     -0.479333579623 
     -0.346766412851 
     -0.562897255980 
     -0.479298197958 
     -0.346743197739 
     -0.347879383374 
     -0.184258596442 
      0.001335211721 
     -0.348340661438 
     -0.183692191439 
      0.001568303394 
     -0.347834690256 
     -0.184226830633 
      0.001197616826 
      0.001793605945 
     -0.184776655263 
     -0.347654313144 
      0.001976604397 
     -0.184777830783 
     -0.347827232849 
      0.001620556055 
     -0.184748793007 
     -0.347790208282 
     -0.346172457824 
     -0.479769163158 
     -0.562635232695 
     -0.346108109241 
     -0.479711886873 
     -0.562693520783 
     -0.345665870727 
     -0.479756806167 
     -0.562693143288 
     -0.561728854958 
     -0.592065838796 
     -0.561037931421 
     -0.561757557558 
     -0.592066861986 
     -0.561066257553 
     -0.561693909967 
     -0.592063001164 
     -0.561079825742 
     -0.562186582689 
     -0.478277895262 
     -0.345506281881 
     -0.562215245824 
     -0.478266401638 
     -0.345505027017 
     -0.562220432170 
     -0.478261988463 
     -0.345506050516 
     -0.348030924604 
     -0.182641114084 
      0.001482133999 
     -0.348039007269 
     -0.182644260749 
      0.001487553310 
     -0.348040960866 
     -0.182644992813 
      0.001488357726 
     -0.001488392495 
      0.182620327849 
      0.348108127451 
     -0.001484182716 
      0.182618780664 
      0.348109085978 
     -0.001482957004 
      0.182618665614 
      0.348108929764 
      0.345592320961 
      0.478401610921 
      0.562054666350 
      0.345593959010 
      0.478401493349 
      0.562054800162 
      0.345594128198 
      0.478401590784 
      0.562054726086 
      0.560899855191 
      0.591683979753 
      0.560976021365 
      0.560900212697 
      0.591683780392 
      0.560976649942 
      0.560900060354 
      0.591683728840 
      0.560977130075 
      0.561786334954 
      0.478632248365 
      0.345349551346 
      0.561787406582 
      0.478631524202 
      0.345348857401 
      0.561787867416 
      0.478631063026 
      0.345349120214 
      0.347997635886 
      0.182755112887 
     -0.001718699296 
      0.347999611507 
      0.182755735108 
     -0.001729370881 
      0.348000964343 
      0.182755701354 
     -0.001733398638 
      0.001680197982 
     -0.182757838866 
     -0.347885880496 
      0.001674964943 
     -0.182748711678 
     -0.347893819685 
      0.001673773302 
     -0.182745974490 
     -0.347893648071 
     -0.345250622301 
     -0.478537160090 
     -0.561846181630 
     -0.345265303082 
     -0.478546117057 
     -0.561794098663 
     -0.345266391537 
     -0.478553841642 
     -0.561757224398 
     -0.561039716435 
     -0.592203470876 
     -0.561850277195 
     -0.561002764970 
     -0.592224355765 
     -0.561908512581 
     -0.560958407742 
     -0.592258682286 
     -0.561922554507 
     -0.562906803101 
     -0.479295230362 
     -0.346640570096 
     -0.562950158999 
     -0.479270365584 
     -0.346619478066 
     -0.562857450441 
     -0.479279234552 
     -0.347074678085 
     -0.348097913496 
     -0.184003839042 
      0.001383613571 
     -0.348473451829 
     -0.184088457392 
      0.001553465465 
     -0.348194099860 
     -0.184011105602 
      0.001205009934 
SCALARS  HV  double
LOOKUP_TABLE default
      0.000335408392 
      0.000065906950 
     -0.000116921550 
      0.000559918828 
     -0.000153548076 
      0.000269542948 
     -0.001599956712 
      0.000177418670 
     -0.000362028020 
     -0.000184415297 
      0.000035373688 
     -0.000015114601 
      0.000033651015 
     -0.000032264991 
     -0.000067356653 
      0.000186969522 
     -0.000059174678 
     -0.000061821739 
     -0.000026500950 
     -0.000004397118 
      0.000003640966 
     -0.000060430662 
      0.000006144270 
      0.000014230811 
     -0.000054113205 
      0.000006580550 
      0.000024136251 
     -0.000000752091 
     -0.000001171557 
     -0.000001139196 
      0.000017130803 
     -0.000004793615 
     -0.000002021240 
      0.000032932497 
     -0.000006130870 
     -0.000003783835 
     -0.000001455032 
      0.000001242890 
     -0.000000687250 
      0.000003074141 
      0.000001814869 
     -0.000003035933 
      0.000003653620 
      0.000003281389 
     -0.000004099879 
     -0.000001166968 
      0.000000273755 
     -0.000000205587 
     -0.000002392983 
      0.000000701049 
     -0.000000467349 
     -0.000003960080 
      0.000000925360 
     -0.000000106527 
     -0.000000503131 
      0.000000082235 
     -0.000000024019 
     -0.000000701866 
      0.000000050928 
      0.000000045788 
     -0.000000853157 
     -0.000000128406 
      0.000000292094 
     -0.000000123828 
      0.000000007063 
      0.000000005179 
     -0.000000092381 
     -0.000000017550 
      0.000000116161 
      0.000000146697 
     -0.000000071451 
      0.000000013016 
     -0.000000089478 
      0.000000034350 
      0.000000213811 
      0.000000037843 
     -0.000000084681 
      0.000000191458 
      0.000000054292 
      0.000000029776 
     -0.000000496259 
     -0.000000136662 
     -0.000000100819 
      0.000000894759 
      0.000000236556 
     -0.000000151810 
     -0.000000418043 
     -0.000000425672 
      0.000000740123 
     -0.000002020677 
      0.000000376638 
     -0.000000740817 