# vtk DataFile Version 2.0
NDG-FEM NonhydrostaticStandingWave2d Simulation
ASCII
DATASET UNSTRUCTURED_GRID

POINTS 1800 double
0.00000000000000000000  0.00000000000000000000  0.00000000000000000000
1.00000000000000000000  0.00000000000000000000  0.00000000000000000000
2.00000000000000000000  0.00000000000000000000  0.00000000000000000000
0.00000000000000000000  1.00000000000000000000  0.00000000000000000000
1.00000000000000000000  1.00000000000000000000  0.00000000000000000000
0.00000000000000000000  2.00000000000000000000  0.00000000000000000000
2.00000000000000000000  0.00000000000000000000  0.00000000000000000000
3.00000000000000000000  0.00000000000000000000  0.00000000000000000000
4.00000000000000000000  0.00000000000000000000  0.00000000000000000000
2.00000000000000000000  1.00000000000000000000  0.00000000000000000000
3.00000000000000000000  1.00000000000000000000  0.00000000000000000000
2.00000000000000000000  2.00000000000000000000  0.00000000000000000000
4.00000000000000000000  0.00000000000000000000  0.00000000000000000000
5.00000000000000000000  0.00000000000000000000  0.00000000000000000000
6.00000000000000000000  0.00000000000000000000  0.00000000000000000000
4.00000000000000000000  1.00000000000000000000  0.00000000000000000000
5.00000000000000000000  1.00000000000000000000  0.00000000000000000000
4.00000000000000000000  2.00000000000000000000  0.00000000000000000000
6.00000000000000000000  0.00000000000000000000  0.00000000000000000000
7.00000000000000000000  0.00000000000000000000  0.00000000000000000000
8.00000000000000000000  0.00000000000000000000  0.00000000000000000000
6.00000000000000000000  1.00000000000000000000  0.00000000000000000000
7.00000000000000000000  1.00000000000000000000  0.00000000000000000000
6.00000000000000000000  2.00000000000000000000  0.00000000000000000000
8.00000000000000000000  0.00000000000000000000  0.00000000000000000000
9.00000000000000000000  0.00000000000000000000  0.00000000000000000000
10.00000000000000000000  0.00000000000000000000  0.00000000000000000000
8.00000000000000000000  1.00000000000000000000  0.00000000000000000000
9.00000000000000000000  1.00000000000000000000  0.00000000000000000000
8.00000000000000000000  2.00000000000000000000  0.00000000000000000000
10.00000000000000000000  0.00000000000000000000  0.00000000000000000000
11.00000000000000000000  0.00000000000000000000  0.00000000000000000000
12.00000000000000000000  0.00000000000000000000  0.00000000000000000000
10.00000000000000000000  1.00000000000000000000  0.00000000000000000000
11.00000000000000000000  1.00000000000000000000  0.00000000000000000000
10.00000000000000000000  2.00000000000000000000  0.00000000000000000000
12.00000000000000000000  0.00000000000000000000  0.00000000000000000000
13.00000000000000000000  0.00000000000000000000  0.00000000000000000000
14.00000000000000000000  0.00000000000000000000  0.00000000000000000000
12.00000000000000000000  1.00000000000000000000  0.00000000000000000000
13.00000000000000000000  1.00000000000000000000  0.00000000000000000000
12.00000000000000000000  2.00000000000000000000  0.00000000000000000000
14.00000000000000000000  0.00000000000000000000  0.00000000000000000000
15.00000000000000000000  0.00000000000000000000  0.00000000000000000000
16.00000000000000000000  0.00000000000000000000  0.00000000000000000000
14.00000000000000000000  1.00000000000000000000  0.00000000000000000000
15.00000000000000000000  1.00000000000000000000  0.00000000000000000000
14.00000000000000000000  2.00000000000000000000  0.00000000000000000000
16.00000000000000000000  0.00000000000000000000  0.00000000000000000000
17.00000000000000000000  0.00000000000000000000  0.00000000000000000000
18.00000000000000000000  0.00000000000000000000  0.00000000000000000000
16.00000000000000000000  1.00000000000000000000  0.00000000000000000000
17.00000000000000000000  1.00000000000000000000  0.00000000000000000000
16.00000000000000000000  2.00000000000000000000  0.00000000000000000000
18.00000000000000000000  0.00000000000000000000  0.00000000000000000000
19.00000000000000000000  0.00000000000000000000  0.00000000000000000000
20.00000000000000000000  0.00000000000000000000  0.00000000000000000000
18.00000000000000000000  1.00000000000000000000  0.00000000000000000000
19.00000000000000000000  1.00000000000000000000  0.00000000000000000000
18.00000000000000000000  2.00000000000000000000  0.00000000000000000000
20.00000000000000000000  0.00000000000000000000  0.00000000000000000000
21.00000000000000000000  0.00000000000000000000  0.00000000000000000000
22.00000000000000000000  0.00000000000000000000  0.00000000000000000000
20.00000000000000000000  1.00000000000000000000  0.00000000000000000000
21.00000000000000000000  1.00000000000000000000  0.00000000000000000000
20.00000000000000000000  2.00000000000000000000  0.00000000000000000000
22.00000000000000000000  0.00000000000000000000  0.00000000000000000000
23.00000000000000000000  0.00000000000000000000  0.00000000000000000000
24.00000000000000000000  0.00000000000000000000  0.00000000000000000000
22.00000000000000000000  1.00000000000000000000  0.00000000000000000000
23.00000000000000000000  1.00000000000000000000  0.00000000000000000000
22.00000000000000000000  2.00000000000000000000  0.00000000000000000000
24.00000000000000000000  0.00000000000000000000  0.00000000000000000000
25.00000000000000000000  0.00000000000000000000  0.00000000000000000000
26.00000000000000000000  0.00000000000000000000  0.00000000000000000000
24.00000000000000000000  1.00000000000000000000  0.00000000000000000000
25.00000000000000000000  1.00000000000000000000  0.00000000000000000000
24.00000000000000000000  2.00000000000000000000  0.00000000000000000000
26.00000000000000000000  0.00000000000000000000  0.00000000000000000000
27.00000000000000000000  0.00000000000000000000  0.00000000000000000000
28.00000000000000000000  0.00000000000000000000  0.00000000000000000000
26.00000000000000000000  1.00000000000000000000  0.00000000000000000000
27.00000000000000000000  1.00000000000000000000  0.00000000000000000000
26.00000000000000000000  2.00000000000000000000  0.00000000000000000000
28.00000000000000000000  0.00000000000000000000  0.00000000000000000000
29.00000000000000000000  0.00000000000000000000  0.00000000000000000000
30.00000000000000000000  0.00000000000000000000  0.00000000000000000000
28.00000000000000000000  1.00000000000000000000  0.00000000000000000000
29.00000000000000000000  1.00000000000000000000  0.00000000000000000000
28.00000000000000000000  2.00000000000000000000  0.00000000000000000000
30.00000000000000000000  0.00000000000000000000  0.00000000000000000000
31.00000000000000000000  0.00000000000000000000  0.00000000000000000000
32.00000000000000000000  0.00000000000000000000  0.00000000000000000000
30.00000000000000000000  1.00000000000000000000  0.00000000000000000000
31.00000000000000000000  1.00000000000000000000  0.00000000000000000000
30.00000000000000000000  2.00000000000000000000  0.00000000000000000000
32.00000000000000000000  0.00000000000000000000  0.00000000000000000000
33.00000000000000000000  0.00000000000000000000  0.00000000000000000000
34.00000000000000000000  0.00000000000000000000  0.00000000000000000000
32.00000000000000000000  1.00000000000000000000  0.00000000000000000000
33.00000000000000000000  1.00000000000000000000  0.00000000000000000000
32.00000000000000000000  2.00000000000000000000  0.00000000000000000000
34.00000000000000000000  0.00000000000000000000  0.00000000000000000000
35.00000000000000000000  0.00000000000000000000  0.00000000000000000000
36.00000000000000000000  0.00000000000000000000  0.00000000000000000000
34.00000000000000000000  1.00000000000000000000  0.00000000000000000000
35.00000000000000000000  1.00000000000000000000  0.00000000000000000000
34.00000000000000000000  2.00000000000000000000  0.00000000000000000000
36.00000000000000000000  0.00000000000000000000  0.00000000000000000000
37.00000000000000000000  0.00000000000000000000  0.00000000000000000000
38.00000000000000000000  0.00000000000000000000  0.00000000000000000000
36.00000000000000000000  1.00000000000000000000  0.00000000000000000000
37.00000000000000000000  1.00000000000000000000  0.00000000000000000000
36.00000000000000000000  2.00000000000000000000  0.00000000000000000000
38.00000000000000000000  0.00000000000000000000  0.00000000000000000000
39.00000000000000000000  0.00000000000000000000  0.00000000000000000000
40.00000000000000000000  0.00000000000000000000  0.00000000000000000000
38.00000000000000000000  1.00000000000000000000  0.00000000000000000000
39.00000000000000000000  1.00000000000000000000  0.00000000000000000000
38.00000000000000000000  2.00000000000000000000  0.00000000000000000000
40.00000000000000000000  0.00000000000000000000  0.00000000000000000000
41.00000000000000000000  0.00000000000000000000  0.00000000000000000000
42.00000000000000000000  0.00000000000000000000  0.00000000000000000000
40.00000000000000000000  1.00000000000000000000  0.00000000000000000000
41.00000000000000000000  1.00000000000000000000  0.00000000000000000000
40.00000000000000000000  2.00000000000000000000  0.00000000000000000000
42.00000000000000000000  0.00000000000000000000  0.00000000000000000000
43.00000000000000000000  0.00000000000000000000  0.00000000000000000000
44.00000000000000000000  0.00000000000000000000  0.00000000000000000000
42.00000000000000000000  1.00000000000000000000  0.00000000000000000000
43.00000000000000000000  1.00000000000000000000  0.00000000000000000000
42.00000000000000000000  2.00000000000000000000  0.00000000000000000000
44.00000000000000000000  0.00000000000000000000  0.00000000000000000000
45.00000000000000000000  0.00000000000000000000  0.00000000000000000000
46.00000000000000000000  0.00000000000000000000  0.00000000000000000000
44.00000000000000000000  1.00000000000000000000  0.00000000000000000000
45.00000000000000000000  1.00000000000000000000  0.00000000000000000000
[...]
POINT_DATA 1800
SCALARS  H  double
LOOKUP_TABLE default
      7.651884648869 
      7.649646939224 
      7.643841851982 
      7.651918276168 
      7.649671681853 
      7.651903902501 
      7.643738767424 
      7.634475839591 
      7.623163807833 
      7.643803262994 
      7.634479625673 
      7.643789666960 
      7.623211382673 
      7.611058368952 
      7.599061497957 
      7.623241062393 
      7.611043255109 
      7.623243312764 
      7.599222273863 
      7.588965024574 
      7.580665404282 
      7.599205060755 
      7.588939040956 
      7.599220141301 
      7.580871595431 
      7.575933853594 
      7.573920043680 
      7.580817401188 
      7.575906472485 
      7.580838128902 
      7.574102842313 
      7.575919192175 
      7.580767324982 
      7.574030272513 
      7.575898732109 
      7.574047587680 
      7.580871530121 
      7.588925183050 
      7.599229358153 
      7.580805417503 
      7.588918012146 
      7.580813630172 
      7.599217237765 
      7.611006601210 
      7.623340777380 
      7.599181345585 
      7.611016577840 
      7.599177507986 
      7.623202427492 
      7.634434371165 
      7.643953028663 
      7.623212886370 
      7.634459788161 
      7.623198111910 
      7.643729583480 
      7.649631051691 
      7.652061713990 
      7.643785561130 
      7.649662137525 
      7.643765444752 
      7.651849742505 
      7.649649152181 
      7.643835067438 
      7.651928913868 
      7.649671964441 
      7.651911540927 
      7.643733517680 
      7.634479053527 
      7.623161254232 
      7.643801548457 
      7.634483966614 
      7.643793849378 
      7.623206580253 
      7.611057529630 
      7.599060758533 
      7.623235992446 
      7.611043916458 
      7.623240823042 
      7.599219939049 
      7.588963844323 
      7.580667222014 
      7.599202369784 
      7.588938515197 
      7.599217660731 
      7.580872942674 
      7.575933557776 
      7.573920042644 
      7.580817912003 
      7.575906237405 
      7.580837790258 
      7.574102908488 
      7.575919235134 
      7.580767329491 
      7.574030282384 
      7.575898713173 
      7.574047437499 
      7.580871505311 
      7.588925174563 
      7.599229389210 
      7.580805412315 
      7.588918003571 
      7.580813645825 
      7.599217247251 
      7.611006596964 
      7.623340783407 
      7.599181350468 
      7.611016575394 
      7.599177514504 
      7.623202430820 
      7.634434370659 
      7.643953029092 
      7.623212887741 
      7.634459787764 
      7.623198112381 
      7.643729583930 
      7.649631051665 
      7.652061713994 
      7.643785561308 
      7.649662137477 
      7.643765444729 
      7.651849742542 
      7.649649152181 
      7.643835067437 
      7.651928913883 
      7.649671964436 
      7.651911540919 
      7.643733517682 
      7.634479053527 
      7.623161254232 
      7.643801548458 
      7.634483966614 
      7.643793849377 
      7.623206580254 
      7.611057529630 
      7.599060758533 
      7.623235992446 
      7.611043916458 
      7.623240823042 
      7.599219939049 
      7.588963844323 
      7.580667222014 
      7.599202369784 
      7.588938515197 
      7.599217660731 
      7.580872942674 
      7.575933557776 
      7.573920042644 
      7.580817912003 
      7.575906237405 
      7.580837790258 
      7.574102908488 
      7.575919235134 
      7.580767329491 
      7.574030282384 
      7.575898713173 
      7.574047437499 
      7.580871505311 
      7.588925174563 
      7.599229389210 
      7.580805412315 
      7.588918003571 
      7.580813645825 
      7.599217247251 
      7.611006596964 
      7.623340783407 
      7.599181350468 
      7.611016575394 
      7.599177514504 
      7.623202430820 
      7.634434370659 
      7.643953029092 
      7.623212887741 
      7.634459787764 
      7.623198112381 
      7.643729583930 
      7.649631051665 
      7.652061713994 
      7.643785561308 
      7.649662137477 
      7.643765444729 
      7.651849742542 
      7.649649152181 
      7.643835067437 
      7.651928913883 
      7.649671964436 
      7.651911540919 
      7.643733517682 
      7.634479053527 
      7.623161254232 
      7.643801548458 
      7.634483966614 
      7.643793849377 
      7.623206580254 
      7.611057529630 
      7.599060758533 
      7.623235992446 
      7.611043916458 
      7.623240823042 
      7.599219939049 
      7.588963844323 
      7.580667222014 
      7.599202369784 
      7.588938515197 
      7.599217660731 
      7.580872942674 
      7.575933557776 
      7.573920042644 
      7.580817912003 
      7.575906237405 
      7.580837790258 
      7.574102908488 
      7.575919235134 
      7.580767329491 
      7.574030282384 
      7.575898713173 
      7.574047437499 
      7.580871505311 
      7.588925174563 
      7.599229389210 
      7.580805412315 
      7.588918003571 
      7.580813645825 
      7.599217247251 
      7.611006596964 
      7.623340783407 
      7.599181350468 
      7.611016575394 
      7.599177514504 
      7.623202430820 
      7.634434370659 
      7.643953029092 
      7.623212887741 
      7.634459787764 
      7.623198112381 
      7.643729583930 
      7.649631051665 
      7.652061713994 
      7.643785561309 
      7.649662137476 
      7.643765444730 
      7.651849742541 
      7.649649152181 
      7.643835067460 
      7.651928913887 
      7.649671964428 
      7.651911540917 
      7.643733517689 
      7.634479053511 
      7.623161254588 
      7.643801548486 
      7.634483966575 
      7.643793849351 
      7.623206580483 
      7.611057529305 
      7.599060762066 
      7.623235992597 
      7.611043916301 
      7.623240822765 
      7.599219942160 
      7.588963840350 
      7.580667246511 
      7.599202370765 
      7.588938513405 
      7.599217657902 
      7.580872970445 
      7.575933527956 
      7.573920161547 
      7.580817924158 
      7.575906204546 
      7.580837778445 
      7.574103087928 
      7.575919083268 
      7.580767427348 
      7.574030429674 
      7.575898403993 
      7.574047573126 
      7.580872261950 
      7.588924966907 
      7.599225072481 
      7.580806181077 
      7.588917360652 
      7.580814622673 
      7.599215658089 
      7.611006960201 
      7.623334109283 
      7.599180129181 
      7.611015644524 
      7.599175713113 
      7.623197462333 
      7.634435855042 
      7.643953340992 
      7.623211883439 
      7.634462462773 
      7.623197272883 
      7.643722536377 
      7.649631636874 
      7.652041602104 
      7.643783380138 
      7.649667938436 
      7.643756521267 
      7.643759815949 
      7.643789568673 
      7.643782007629 
      7.649657542954 
      7.649636889045 
      7.652011679004 
      7.623187537826 
      7.623210520694 
      7.623217767170 
      7.634457347131 
      7.634445367981 
      7.643910675547 
      7.599162042919 
      7.599167932473 
      7.599187569125 
      7.611021593951 
      7.611022612737 
      7.623326840825 
      7.580798093611 
      7.580787935464 
      7.580811830014 
      7.588925430059 
      7.588940359417 
      7.599240434532 
      7.574040007493 
      7.574018139778 
      7.574036555813 
      7.575904042469 
      7.575927175409 
      7.580794047688 
      7.580838635797 
      7.580813970301 
      7.580821053535 
      7.575907465315 
      7.575931665299 
      7.573955995978 
      7.599226602296 
      7.599207152983 
      7.599200242457 
      7.588935685862 
      7.588952861770 
      7.580702375034 
      7.623255566662 
      7.623248118484 
      7.623229683894 
      7.611038177890 
      7.611041124443 
      7.599083237675 
      7.643809253801 
      7.643817724065 
      7.643795085476 
      7.634477159136 
      7.634462794930 
      7.623160021294 
      7.651920629180 
      7.651943322306 
      7.651925556247 
      7.649666374676 
      7.649639505139 
      7.643807868967 
      7.643763310175 
      7.643791374490 
      7.643785365482 
      7.649660036423 
      7.649632427816 
      7.652020522918 
      7.623185813680 
      7.623206741694 
      7.623214659611 
      7.634462282688 
      7.634446122941 
      7.643917792064 
      7.599161084049 
      7.599166273039 
      7.599185058199 
      7.611022748542 
      7.611023615394 
      7.623325955284 
      7.580799615152 
      7.580788545073 
      7.580811249504 
      7.588925155121 
      7.588940646541 
      7.599237705149 
      7.574039973389 
      7.574018174541 
      7.574036485105 
      7.575903811984 
      7.575927357900 
      7.580793522103 
      7.580838619798 
      7.580813984226 
      7.580821102583 
      7.575907451468 
      7.575931652393 
      7.573955764931 
      7.599226619988 
      7.599207160594 
      7.599200251504 
      7.588935684811 
      7.588952853815 
      7.580702364806 
      7.623255570800 
      7.623248119922 
      7.623229684089 
      7.611038177006 
      7.611041124093 
      7.599083241172 
      7.643809254200 
      7.643817724237 
      7.643795085383 
      7.634477158897 
      7.634462795005 
      7.623160021662 
      7.651920629200 
      7.651943322323 
      7.651925556233 
      7.649666374640 
      7.649639505151 
      7.643807868948 
      7.643763310175 
      7.643791374492 
      7.643785365481 
      7.649660036419 
      7.649632427817 
      7.652020522910 
      7.623185813680 
      7.623206741694 
      7.623214659611 
      7.634462282688 
      7.634446122941 
      7.643917792063 
      7.599161084049 
      7.599166273039 
      7.599185058199 
      7.611022748542 
      7.611023615394 
      7.623325955283 
      7.580799615152 
      7.580788545073 
      7.580811249504 
      7.588925155121 
      7.588940646541 
      7.599237705149 
      7.574039973389 
      7.574018174541 
      7.574036485105 
      7.575903811984 
      7.575927357900 
      7.580793522103 
      7.580838619798 
      7.580813984226 
      7.580821102583 
      7.575907451468 
      7.575931652393 
      7.573955764931 
      7.599226619988 
      7.599207160594 
      7.599200251504 
      7.588935684811 
      7.588952853815 
      7.580702364806 
      7.623255570800 
      7.623248119922 
      7.623229684089 
      7.611038177006 
      7.611041124093 
      7.599083241172 
      7.643809254200 
      7.643817724237 
      7.643795085383 
      7.634477158897 
      7.634462795005 
      7.623160021662 
      7.651920629200 
      7.651943322323 
      7.651925556233 
      7.649666374640 
      7.649639505151 
      7.643807868948 
      7.643763310175 
      7.643791374492 
      7.643785365481 
      7.649660036419 
      7.649632427817 
      7.652020522910 
      7.623185813680 
      7.623206741694 
      7.623214659611 
      7.634462282688 
      7.634446122941 
      7.643917792063 
      7.599161084049 
      7.599166273039 
      7.599185058199 
      7.611022748542 
      7.611023615394 
      7.623325955283 
      7.580799615152 
      7.580788545073 
      7.580811249504 
      7.588925155121 
      7.588940646541 
      7.599237705149 
      7.574039973389 
      7.574018174541 
      7.574036485105 
      7.575903811984 
      7.575927357900 
      7.580793522103 
      7.580838619798 
      7.580813984226 
      7.580821102583 
      7.575907451468 
      7.575931652393 
      7.573955764931 
      7.599226619988 
      7.599207160594 
      7.599200251504 
      7.588935684811 
      7.588952853815 
      7.580702364806 
      7.623255570800 
      7.623248119922 
      7.623229684089 
      7.611038177006 
      7.611041124093 
      7.599083241172 
      7.643809254200 
      7.643817724237 
      7.643795085383 
      7.634477158897 
      7.634462795005 
      7.623160021662 
      7.651920629201 
      7.651943322327 
      7.651925556240 
      7.649666374638 
      7.649639505151 
      7.643807868948 
      7.643763310203 
      7.643791374531 
      7.643785365526 
      7.649660036412 
      7.649632427821 
      7.652020522901 
      7.623185814042 
      7.623206741988 
      7.623214659817 
      7.634462282664 
      7.634446122981 
      7.643917791967 
      7.599161087634 
      7.599166275269 
      7.599185058660 
      7.611022748560 
      7.611023615800 
      7.623325954508 
      7.580799642289 
      7.580788566597 
      7.580811260153 
      7.588925154865 
      7.588940650556 
      7.599237699399 
      7.574040137853 
      7.574018373565 
      7.574036695718 
      7.575903786080 
      7.575927362301 
      7.580793505704 
      7.580839198075 
      7.580814747252 
      7.580821890112 
      7.575907103007 
      7.575931347266 
      7.573956061199 
      7.599223875102 
      7.599205086396 
      7.599197654105 
      7.588934789236 
      7.588952248364 
      7.580704060265 
      7.623249780495 
      7.623245269914 
      7.623229171401 
      7.611037185616 
      7.611041677546 
      7.599082103124 
      7.643807452712 
      7.643817115602 
      7.643792598605 
      7.634480477012 
      7.634463392362 
      7.623157650376 
      7.651903070764 
      7.651957342794 
      7.651940393645 
      7.649669360798 
      7.649633273045 
      7.643798524208 
      7.651924502505 
      7.649639894659 
      7.643802123276 
      7.651945953760 
      7.649663732800 
      7.651909435382 
      7.643799461201 
      7.634467106377 
      7.623162067846 
      7.643817099398 
      7.634479371849 
      7.643796861010 
      7.623238882994 
      7.611045703013 
      7.599089682492 
      7.623241766312 
      7.611042917838 
      7.623242318754 
      7.599208609934 
      7.588955647974 
      7.580710749664 
      7.599201970048 
      7.588940210531 
      7.599221601496 
      7.580822050995 
      7.575931403958 
      7.573963439357 
      7.580811313610 
      7.575911898635 
      7.580845773186 
      7.574030808928 
      7.575924492950 
      7.580797803966 
      7.574017315432 
      7.575906750664 
      7.574053137065 
      7.580801283608 
      7.588935769895 
      7.599237570418 
      7.580789764293 
      7.588925598910 
      7.580815354234 
      7.599175224847 
      7.611018303920 
      7.623321201503 
      7.599169341799 
      7.611020261352 
      7.599174062512 
      7.623209021864 
      7.634442484534 
      7.643909744745 
      7.623211075541 
      7.634457107116 
      7.623190499912 
      7.643786196952 
      7.649632110368 
      7.652012080225 
      7.643795845785 
      7.649653851494 
      7.643757090656 
      7.651932513442 
      7.649642769047 
      7.643802273261 
      7.651946216865 
      7.649661921474 
      7.651906190166 
      7.643805217741 
      7.634468276471 
      7.623159420150 
      7.643817520869 
      7.634476590685 
      7.643793399947 
      7.623239148090 
      7.611046471478 
      7.599087827713 
      7.623244796201 
      7.611041565578 
      7.623244900528 
      7.599206051010 
      7.588955967643 
      7.580710076102 
      7.599202584550 
      7.588941023135 
      7.599224418195 
      7.580821299057 
      7.575931648354 
      7.573963209096 
      7.580810538270 
      7.575912299477 
      7.580844987992 
      7.574030571932 
      7.575924469680 
      7.580797883751 
      7.574017083657 
      7.575906755704 
      7.574052948622 
      7.580801294758 
      7.588935754345 
      7.599237594500 
      7.580789759087 
      7.588925587951 
      7.580815347740 
      7.599175233861 
      7.611018302102 
      7.623321204101 
      7.599169345506 
      7.611020259288 
      7.599174062326 
      7.623209023057 
      7.634442484427 
      7.643909744943 
      7.623211076152 
      7.634457106869 
      7.623190499775 
      7.643786197032 
      7.649632110361 
      7.652012080246 
      7.643795845839 
      7.649653851470 
      7.643757090630 
      7.651932513444 
      7.649642769046 
      7.643802273264 
      7.651946216868 
      7.649661921472 
      7.651906190162 
      7.643805217740 
      7.634468276471 
      7.623159420150 
      7.643817520869 
      7.634476590685 
      7.643793399946 
      7.623239148090 
      7.611046471478 
      7.599087827713 
      7.623244796201 
      7.611041565578 
      7.623244900528 
      7.599206051010 
      7.588955967643 
      7.580710076102 
      7.599202584550 
      7.588941023135 
      7.599224418195 
      7.580821299057 
      7.575931648354 
      7.573963209096 
      7.580810538270 
      7.575912299477 
      7.580844987992 
      7.574030571932 
      7.575924469680 
      7.580797883751 
      7.574017083657 
      7.575906755704 
      7.574052948622 
      7.580801294758 
      7.588935754345 
      7.599237594500 
      7.580789759087 
      7.588925587951 
      7.580815347740 
      7.599175233861 
      7.611018302102 
      7.623321204101 
      7.599169345506 
      7.611020259288 
      7.599174062326 
      7.623209023057 
      7.634442484427 
      7.643909744943 
      7.623211076152 
      7.634457106869 
      7.623190499775 
      7.643786197032 
      7.649632110361 
      7.652012080246 
      7.643795845839 
      7.649653851470 
      7.643757090630 
      7.651932513444 
      7.649642769046 
      7.643802273264 
      7.651946216868 
      7.649661921472 
      7.651906190162 
      7.643805217740 
      7.634468276471 
      7.623159420150 
      7.643817520869 
      7.634476590685 
      7.643793399946 
      7.623239148090 
      7.611046471478 
      7.599087827713 
      7.623244796201 
      7.611041565578 
      7.623244900528 
      7.599206051010 
      7.588955967643 
      7.580710076102 
      7.599202584550 
      7.588941023135 
      7.599224418195 
      7.580821299057 
      7.575931648354 
      7.573963209096 
      7.580810538270 
      7.575912299477 
      7.580844987992 
      7.574030571932 
      7.575924469680 
      7.580797883751 
      7.574017083657 
      7.575906755704 
      7.574052948622 
      7.580801294758 
      7.588935754345 
      7.599237594500 
      7.580789759087 
      7.588925587951 
      7.580815347740 
      7.599175233861 
      7.611018302102 
      7.623321204101 
      7.599169345506 
      7.611020259287 
      7.599174062326 
      7.623209023057 
      7.634442484427 
      7.643909744944 
      7.623211076152 
      7.634457106869 
      7.623190499775 
      7.643786197032 
      7.649632110361 
      7.652012080253 
      7.643795845838 
      7.649653851471 
      7.643757090629 
      7.651932513442 
      7.649642769045 
      7.643802273327 
      7.651946216860 
      7.649661921491 
      7.651906190155 
      7.643805217728 
      7.634468276454 
      7.623159420561 
      7.643817520779 
      7.634476590886 
      7.643793399846 
      7.623239148063 
      7.611046471311 
      7.599087829965 
      7.623244795343 
      7.611041567027 
      7.623244899073 
      7.599206050326 
      7.588955967470 
      7.580710096737 
      7.599202578418 
      7.588941028018 
      7.599224404625 
      7.580821293769 
      7.575931641280 
      7.573963423794 
      7.580810521712 
      7.575912272066 
      7.580844940414 
      7.574030686643 
      7.575924242963 
      7.580798341328 
      7.574017237091 
      7.575906401448 
      7.574053075472 
      7.580802165675 
      7.588935571417 
      7.599233933979 
      7.580790657331 
      7.588924999882 
      7.580815741787 
      7.599173031739 
      7.611019390754 
      7.623319346420 
      7.599169447931 
      7.611022213530 
      7.599176161444 
      7.623206982764 
      7.634443007805 
      7.643914712278 
      7.623208696868 
      7.634460048693 
      7.623193285605 
      7.643793337359 
      7.649630169632 
      7.652017895850 
      7.643798074322 
      7.649653110011 
      7.643757408153 
      7.643757408153 
      7.643798074322 
      7.643793337359 
      7.649653110011 
      7.649630169632 
      7.652017895850 