# vtk DataFile Version 2.0
NDG-FEM NonhydrostaticStandingWave2d Simulation
ASCII
DATASET UNSTRUCTURED_GRID

POINTS 1800 double
0.00000000000000000000  0.00000000000000000000  0.00000000000000000000
1.00000000000000000000  0.00000000000000000000  0.00000000000000000000
2.00000000000000000000  0.00000000000000000000  0.00000000000000000000
0.00000000000000000000  1.00000000000000000000  0.00000000000000000000
1.00000000000000000000  1.00000000000000000000  0.00000000000000000000
0.00000000000000000000  2.00000000000000000000  0.00000000000000000000
2.00000000000000000000  0.00000000000000000000  0.00000000000000000000
3.00000000000000000000  0.00000000000000000000  0.00000000000000000000
4.00000000000000000000  0.00000000000000000000  0.00000000000000000000
2.00000000000000000000  1.00000000000000000000  0.00000000000000000000
3.00000000000000000000  1.00000000000000000000  0.00000000000000000000
2.00000000000000000000  2.00000000000000000000  0.00000000000000000000
4.00000000000000000000  0.00000000000000000000  0.00000000000000000000
5.00000000000000000000  0.00000000000000000000  0.00000000000000000000
6.00000000000000000000  0.00000000000000000000  0.00000000000000000000
4.00000000000000000000  1.00000000000000000000  0.00000000000000000000
5.00000000000000000000  1.00000000000000000000  0.00000000000000000000
4.00000000000000000000  2.00000000000000000000  0.00000000000000000000
6.00000000000000000000  0.00000000000000000000  0.00000000000000000000
7.00000000000000000000  0.00000000000000000000  0.00000000000000000000
8.00000000000000000000  0.00000000000000000000  0.00000000000000000000
6.00000000000000000000  1.00000000000000000000  0.00000000000000000000
7.00000000000000000000  1.00000000000000000000  0.00000000000000000000
6.00000000000000000000  2.00000000000000000000  0.00000000000000000000
8.00000000000000000000  0.00000000000000000000  0.00000000000000000000
9.00000000000000000000  0.00000000000000000000  0.00000000000000000000
10.00000000000000000000  0.00000000000000000000  0.00000000000000000000
8.00000000000000000000  1.00000000000000000000  0.00000000000000000000
9.00000000000000000000  1.00000000000000000000  0.00000000000000000000
8.00000000000000000000  2.00000000000000000000  0.00000000000000000000
10.00000000000000000000  0.00000000000000000000  0.00000000000000000000
11.00000000000000000000  0.00000000000000000000  0.00000000000000000000
12.00000000000000000000  0.00000000000000000000  0.00000000000000000000
10.00000000000000000000  1.00000000000000000000  0.00000000000000000000
11.00000000000000000000  1.00000000000000000000  0.00000000000000000000
10.00000000000000000000  2.00000000000000000000  0.00000000000000000000
12.00000000000000000000  0.00000000000000000000  0.00000000000000000000
13.00000000000000000000  0.00000000000000000000  0.00000000000000000000
14.00000000000000000000  0.00000000000000000000  0.00000000000000000000
12.00000000000000000000  1.00000000000000000000  0.00000000000000000000
13.00000000000000000000  1.00000000000000000000  0.00000000000000000000
12.00000000000000000000  2.00000000000000000000  0.00000000000000000000
14.00000000000000000000  0.00000000000000000000  0.00000000000000000000
15.00000000000000000000  0.00000000000000000000  0.00000000000000000000
16.00000000000000000000  0.00000000000000000000  0.00000000000000000000
14.00000000000000000000  1.00000000000000000000  0.00000000000000000000
15.00000000000000000000  1.00000000000000000000  0.00000000000000000000
14.00000000000000000000  2.00000000000000000000  0.00000000000000000000
16.00000000000000000000  0.00000000000000000000  0.00000000000000000000
17.00000000000000000000  0.00000000000000000000  0.00000000000000000000
18.00000000000000000000  0.00000000000000000000  0.00000000000000000000
16.00000000000000000000  1.00000000000000000000  0.00000000000000000000
17.00000000000000000000  1.00000000000000000000  0.00000000000000000000
16.00000000000000000000  2.00000000000000000000  0.00000000000000000000
18.00000000000000000000  0.00000000000000000000  0.00000000000000000000
19.00000000000000000000  0.00000000000000000000  0.00000000000000000000
20.00000000000000000000  0.00000000000000000000  0.00000000000000000000
18.00000000000000000000  1.00000000000000000000  0.00000000000000000000
19.00000000000000000000  1.00000000000000000000  0.00000000000000000000
18.00000000000000000000  2.00000000000000000000  0.00000000000000000000
20.00000000000000000000  0.00000000000000000000  0.00000000000000000000
21.00000000000000000000  0.00000000000000000000  0.00000000000000000000
22.00000000000000000000  0.00000000000000000000  0.00000000000000000000
20.00000000000000000000  1.00000000000000000000  0.00000000000000000000
21.00000000000000000000  1.00000000000000000000  0.00000000000000000000
20.00000000000000000000  2.00000000000000000000  0.00000000000000000000
22.00000000000000000000  0.00000000000000000000  0.00000000000000000000
23.00000000000000000000  0.00000000000000000000  0.00000000000000000000
24.00000000000000000000  0.00000000000000000000  0.00000000000000000000
22.00000000000000000000  1.00000000000000000000  0.00000000000000000000
23.00000000000000000000  1.00000000000000000000  0.00000000000000000000
22.00000000000000000000  2.00000000000000000000  0.00000000000000000000
24.00000000000000000000  0.00000000000000000000  0.00000000000000000000
25.00000000000000000000  0.00000000000000000000  0.00000000000000000000
26.00000000000000000000  0.00000000000000000000  0.00000000000000000000
24.00000000000000000000  1.00000000000000000000  0.00000000000000000000
25.00000000000000000000  1.00000000000000000000  0.00000000000000000000
24.00000000000000000000  2.00000000000000000000  0.00000000000000000000
26.00000000000000000000  0.00000000000000000000  0.00000000000000000000
27.00000000000000000000  0.00000000000000000000  0.00000000000000000000
28.00000000000000000000  0.00000000000000000000  0.00000000000000000000
26.00000000000000000000  1.00000000000000000000  0.00000000000000000000
27.00000000000000000000  1.00000000000000000000  0.00000000000000000000
26.00000000000000000000  2.00000000000000000000  0.00000000000000000000
28.00000000000000000000  0.00000000000000000000  0.00000000000000000000
29.00000000000000000000  0.00000000000000000000  0.00000000000000000000
30.00000000000000000000  0.00000000000000000000  0.00000000000000000000
28.00000000000000000000  1.00000000000000000000  0.00000000000000000000
29.00000000000000000000  1.00000000000000000000  0.00000000000000000000
28.00000000000000000000  2.00000000000000000000  0.00000000000000000000
30.00000000000000000000  0.00000000000000000000  0.00000000000000000000
31.00000000000000000000  0.00000000000000000000  0.00000000000000000000
32.00000000000000000000  0.00000000000000000000  0.00000000000000000000
30.00000000000000000000  1.00000000000000000000  0.00000000000000000000
31.00000000000000000000  1.00000000000000000000  0.00000000000000000000
30.00000000000000000000  2.00000000000000000000  0.00000000000000000000
32.00000000000000000000  0.00000000000000000000  0.00000000000000000000
33.00000000000000000000  0.00000000000000000000  0.00000000000000000000
34.00000000000000000000  0.00000000000000000000  0.00000000000000000000
32.00000000000000000000  1.00000000000000000000  0.00000000000000000000
33.00000000000000000000  1.00000000000000000000  0.00000000000000000000
32.00000000000000000000  2.00000000000000000000  0.00000000000000000000
34.00000000000000000000  0.00000000000000000000  0.00000000000000000000
35.00000000000000000000  0.00000000000000000000  0.00000000000000000000
36.00000000000000000000  0.00000000000000000000  0.00000000000000000000
34.00000000000000000000  1.00000000000000000000  0.00000000000000000000
35.00000000000000000000  1.00000000000000000000  0.00000000000000000000
34.00000000000000000000  2.00000000000000000000  0.00000000000000000000
36.00000000000000000000  0.00000000000000000000  0.00000000000000000000
37.00000000000000000000  0.00000000000000000000  0.00000000000000000000
38.00000000000000000000  0.00000000000000000000  0.00000000000000000000
36.00000000000000000000  1.00000000000000000000  0.00000000000000000000
37.00000000000000000000  1.00000000000000000000  0.00000000000000000000
36.00000000000000000000  2.00000000000000000000  0.00000000000000000000
38.00000000000000000000  0.00000000000000000000  0.00000000000000000000
39.00000000000000000000  0.00000000000000000000  0.00000000000000000000
40.00000000000000000000  0.00000000000000000000  0.00000000000000000000
38.00000000000000000000  1.00000000000000000000  0.00000000000000000000
39.00000000000000000000  1.00000000000000000000  0.00000000000000000000
38.00000000000000000000  2.00000000000000000000  0.00000000000000000000
40.00000000000000000000  0.00000000000000000000  0.00000000000000000000
41.00000000000000000000  0.00000000000000000000  0.00000000000000000000
42.00000000000000000000  0.00000000000000000000  0.00000000000000000000
40.00000000000000000000  1.00000000000000000000  0.00000000000000000000
41.00000000000000000000  1.00000000000000000000  0.00000000000000000000
40.00000000000000000000  2.00000000000000000000  0.00000000000000000000
42.00000000000000000000  0.00000000000000000000  0.00000000000000000000
43.00000000000000000000  0.00000000000000000000  0.00000000000000000000
44.00000000000000000000  0.00000000000000000000  0.00000000000000000000
42.00000000000000000000  1.00000000000000000000  0.00000000000000000000
43.00000000000000000000  1.00000000000000000000  0.00000000000000000000
42.00000000000000000000  2.00000000000000000000  0.00000000000000000000
44.00000000000000000000  0.00000000000000000000  0.00000000000000000000
45.00000000000000000000  0.00000000000000000000  0.00000000000000000000
46.00000000000000000000  0.00000000000000000000  0.00000000000000000000
44.00000000000000000000  1.00000000000000000000  0.00000000000000000000
45.00000000000000000000  1.00000000000000000000  0.00000000000000000000
[...]
POINT_DATA 1800
SCALARS  H  double
LOOKUP_TABLE default
      7.654416271964 
      7.652615186522 
      7.646784422254 
      7.654378095411 
      7.652584994539 
      7.654410746464 
      7.647010223428 
      7.638165354069 
      7.626380739100 
      7.646946687348 
      7.638144008054 
      7.646972883963 
      7.626693204625 
      7.613404006875 
      7.599420519016 
      7.626641885249 
      7.613398847587 
      7.626669133208 
      7.599764285418 
      7.586731179818 
      7.576061374697 
      7.599738421726 
      7.586744524560 
      7.599761673670 
      7.576284050146 
      7.569157176584 
      7.566878258379 
      7.576295759616 
      7.569186466412 
      7.576303570646 
      7.566799869880 
      7.569133813369 
      7.576466455284 
      7.566851133262 
      7.569166492584 
      7.566835243249 
      7.576090512448 
      7.586683847470 
      7.599948083225 
      7.576163106461 
      7.586702940174 
      7.576129775382 
      7.599510974327 
      7.613364877815 
      7.626771758226 
      7.599569964329 
      7.613362827342 
      7.599536927573 
      7.626502739749 
      7.638144038128 
      7.646967893135 
      7.626519901963 
      7.638125550288 
      7.626501877747 
      7.646919207097 
      7.652610240859 
      7.654318718601 
      7.646892111564 
      7.652584085703 
      7.646892445963 
      7.654434517385 
      7.652614592026 
      7.646781408793 
      7.654379683653 
      7.652588806976 
      7.654394575584 
      7.647009082984 
      7.638161152399 
      7.626377113033 
      7.646947209210 
      7.638142751924 
      7.646971683481 
      7.626690858536 
      7.613400786798 
      7.599417822035 
      7.626640007521 
      7.613396274857 
      7.626669058203 
      7.599761700834 
      7.586730174227 
      7.576061175841 
      7.599736534121 
      7.586743562297 
      7.599761284354 
      7.576283720859 
      7.569158374739 
      7.566879826620 
      7.576295451718 
      7.569187411425 
      7.576303213260 
      7.566801389421 
      7.569135140264 
      7.576466568427 
      7.566852359973 
      7.569167775327 
      7.566836047884 
      7.576090567655 
      7.586683558104 
      7.599947760543 
      7.576163135350 
      7.586702802294 
      7.576129813822 
      7.599510550070 
      7.613364598442 
      7.626772046234 
      7.599569411330 
      7.613362605131 
      7.599536307356 
      7.626503017862 
      7.638144074548 
      7.646967860536 
      7.626520139251 
      7.638125520769 
      7.626501973398 
      7.646919168270 
      7.652610231870 
      7.654318750982 
      7.646892109156 
      7.652584073991 
      7.646892500435 
      7.654434552437 
      7.652614588545 
      7.646781395226 
      7.654379714580 
      7.652588801156 
      7.654394605091 
      7.647009080520 
      7.638161158127 
      7.626377104568 
      7.646947210499 
      7.638142756406 
      7.646971685620 
      7.626690852947 
      7.613400787908 
      7.599417821297 
      7.626640003902 
      7.613396276370 
      7.626669056238 
      7.599761699787 
      7.586730174169 
      7.576061176059 
      7.599736533201 
      7.586743562452 
      7.599761283722 
      7.576283720826 
      7.569158374690 
      7.566879826700 
      7.576295451618 
      7.569187411419 
      7.576303213160 
      7.566801389442 
      7.569135140253 
      7.576466568442 
      7.566852359970 
      7.569167775322 
      7.566836047873 
      7.576090567660 
      7.586683558102 
      7.599947760545 
      7.576163135351 
      7.586702802293 
      7.576129813820 
      7.599510550071 
      7.613364598442 
      7.626772046234 
      7.599569411331 
      7.613362605131 
      7.599536307356 
      7.626503017862 
      7.638144074548 
      7.646967860536 
      7.626520139251 
      7.638125520769 
      7.626501973398 
      7.646919168270 
      7.652610231870 
      7.654318750982 
      7.646892109156 
      7.652584073991 
      7.646892500435 
      7.654434552437 
      7.652614588545 
      7.646781395226 
      7.654379714580 
      7.652588801156 
      7.654394605091 
      7.647009080520 
      7.638161158127 
      7.626377104568 
      7.646947210499 
      7.638142756406 
      7.646971685620 
      7.626690852947 
      7.613400787908 
      7.599417821297 
      7.626640003902 
      7.613396276370 
      7.626669056238 
      7.599761699787 
      7.586730174169 
      7.576061176059 
      7.599736533202 
      7.586743562452 
      7.599761283722 
      7.576283720826 
      7.569158374689 
      7.566879826699 
      7.576295451619 
      7.569187411418 
      7.576303213161 
      7.566801389446 
      7.569135140251 
      7.576466568422 
      7.566852359977 
      7.569167775312 
      7.566836047882 
      7.576090567683 
      7.586683558096 
      7.599947760303 
      7.576163135391 
      7.586702802234 
      7.576129813876 
      7.599510550065 
      7.613364598595 
      7.626772044478 
      7.599569411485 
      7.613362604996 
      7.599536307683 
      7.626503016777 
      7.638144076314 
      7.646967854891 
      7.626520139104 
      7.638125522184 
      7.626501974760 
      7.646919161195 
      7.652610237933 
      7.654318765544 
      7.646892102830 
      7.652584087233 
      7.646892498712 
      7.654434545634 
      7.652614569194 
      7.646781558455 
      7.654379688371 
      7.652588811895 
      7.654394559086 
      7.647009193993 
      7.638161004381 
      7.626377070242 
      7.646947274995 
      7.638142540825 
      7.646971637811 
      7.626691050136 
      7.613401074438 
      7.599416190771 
      7.626640339521 
      7.613396305322 
      7.626669446229 
      7.599760402322 
      7.586730086402 
      7.576062212769 
      7.599735647425 
      7.586743680565 
      7.599761124296 
      7.576283966303 
      7.569159256929 
      7.566883177857 
      7.576295530208 
      7.569188779483 
      7.576303332384 
      7.566804008360 
      7.569135668751 
      7.576466252070 
      7.566853919662 
      7.569168294739 
      7.566836241170 
      7.576090755033 
      7.586682417357 
      7.599945352466 
      7.576162922889 
      7.586701418301 
      7.576129115532 
      7.599508169815 
      7.613361112099 
      7.626768908681 
      7.599567799190 
      7.613359978422 
      7.599535691591 
      7.626499324998 
      7.638141576018 
      7.646965679662 
      7.626518138053 
      7.638123805492 
      7.626501302890 
      7.646915798933 
      7.652619956034 
      7.654333797471 
      7.646887882133 
      7.652585174969 
      7.646891543001 
      7.646890527618 
      7.646863946059 
      7.646873004701 
      7.652588273456 
      7.652620346248 
      7.654369400415 
      7.626505746467 
      7.626495713825 
      7.626487155330 
      7.638126998876 
      7.638151446867 
      7.647001180474 
      7.599546412856 
      7.599559670338 
      7.599538773612 
      7.613359465295 
      7.613369502569 
      7.626784539577 
      7.576139746690 
      7.576173334444 
      7.576150087350 
      7.586695170816 
      7.586685333118 
      7.599934662015 
      7.566839344163 
      7.566877532253 
      7.566863716660 
      7.569155975528 
      7.569129075386 
      7.576432863868 
      7.576302694788 
      7.576326310049 
      7.576327258030 
      7.569175654938 
      7.569144062824 
      7.566836899966 
      7.599759417048 
      7.599760373384 
      7.599772656059 
      7.586741174818 
      7.586718436607 
      7.576027891727 
      7.626664996287 
      7.626646640004 
      7.626663464718 
      7.613404801635 
      7.613398597466 
      7.599409261033 
      7.646965891417 
      7.646936594082 
      7.646953059603 
      7.638156217137 
      7.638167129212 
      7.626394404346 
      7.654388203460 
      7.654356869801 
      7.654369681434 
      7.652600353753 
      7.652623678243 
      7.646815974210 
      7.646887954436 
      7.646863716379 
      7.646868637056 
      7.652589807886 
      7.652618693753 
      7.654358160781 
      7.626502536064 
      7.626494576942 
      7.626487343819 
      7.638124583565 
      7.638150101363 
      7.646999888688 
      7.599543755945 
      7.599558035579 
      7.599538696916 
      7.613356652675 
      7.613368328820 
      7.626784543774 
      7.576139608301 
      7.576173047179 
      7.576149944851 
      7.586694167601 
      7.586684545563 
      7.599934487098 
      7.566840978619 
      7.566878729139 
      7.566864368349 
      7.569156936031 
      7.569129237268 
      7.576432741409 
      7.576302871779 
      7.576326463379 
      7.576327179484 
      7.569176946707 
      7.569144836268 
      7.566838041036 
      7.599759090457 
      7.599759942788 
      7.599772090430 
      7.586741053925 
      7.586718455596 
      7.576027964654 
      7.626665209000 
      7.626646857948 
      7.626663608320 
      7.613404592521 
      7.613398667406 
      7.599408437904 
      7.646965842809 
      7.646936588292 
      7.646953141576 
      7.638156190638 
      7.638167073057 
      7.626394410979 
      7.654388231298 
      7.654356890356 
      7.654369700056 
      7.652600347660 
      7.652623658412 
      7.646816020502 
      7.646887946551 
      7.646863713581 
      7.646868635085 
      7.652589799080 
      7.652618688748 
      7.654358197110 
      7.626502530492 
      7.626494573303 
      7.626487341551 
      7.638124586367 
      7.638150102073 
      7.646999896340 
      7.599543755428 
      7.599558034894 
      7.599538696371 
      7.613356654018 
      7.613368329348 
      7.626784543115 
      7.576139608429 
      7.576173047145 
      7.576149944781 
      7.586694167796 
      7.586684545666 
      7.599934486571 
      7.566840978668 
      7.566878729148 
      7.566864368342 
      7.569156936043 
      7.569129237281 
      7.576432741296 
      7.576302871789 
      7.576326463381 
      7.576327179483 
      7.569176946706 
      7.569144836269 
      7.566838041019 
      7.599759090459 
      7.599759942789 
      7.599772090429 
      7.586741053924 
      7.586718455596 
      7.576027964652 
      7.626665209000 
      7.626646857948 
      7.626663608320 
      7.613404592521 
      7.613398667406 
      7.599408437904 
      7.646965842809 
      7.646936588292 
      7.646953141576 
      7.638156190638 
      7.638167073057 
      7.626394410979 
      7.654388231298 
      7.654356890356 
      7.654369700056 
      7.652600347660 
      7.652623658412 
      7.646816020502 
      7.646887946551 
      7.646863713581 
      7.646868635085 
      7.652589799080 
      7.652618688748 
      7.654358197110 
      7.626502530492 
      7.626494573303 
      7.626487341551 
      7.638124586367 
      7.638150102073 
      7.646999896340 
      7.599543755428 
      7.599558034895 
      7.599538696372 
      7.613356654017 
      7.613368329348 
      7.626784543115 
      7.576139608429 
      7.576173047146 
      7.576149944783 
      7.586694167796 
      7.586684545666 
      7.599934486571 
      7.566840978671 
      7.566878729154 
      7.566864368350 
      7.569156936040 
      7.569129237279 
      7.576432741298 
      7.576302871797 
      7.576326463413 
      7.576327179532 
      7.569176946691 
      7.569144836257 
      7.566838041037 
      7.599759090367 
      7.599759942868 
      7.599772090660 
      7.586741053836 
      7.586718455519 
      7.576027964766 
      7.626665207656 
      7.626646857327 
      7.626663608626 
      7.613404592250 
      7.613398666983 
      7.599408438480 
      7.646965835803 
      7.646936580272 
      7.646953133928 
      7.638156191743 
      7.638167072175 
      7.626394412608 
      7.654388228855 
      7.654356865951 
      7.654369650768 
      7.652600362488 
      7.652623668556 
      7.646816014324 
      7.646888077032 
      7.646863815015 
      7.646868677696 
      7.652589821993 
      7.652618742403 
      7.654358131934 
      7.626502679912 
      7.626494911630 
      7.626487885777 
      7.638124364985 
      7.638149978963 
      7.646999891004 
      7.599542343033 
      7.599556971787 
      7.599538204349 
      7.613356618249 
      7.613368093669 
      7.626785003929 
      7.576140158691 
      7.576173081446 
      7.576149555267 
      7.586694267963 
      7.586684465254 
      7.599934237932 
      7.566843736174 
      7.566880417685 
      7.566864473893 
      7.569158324981 
      7.569130328388 
      7.576432732971 
      7.576302704916 
      7.576326371784 
      7.576326812827 
      7.569177550757 
      7.569145386400 
      7.566838306821 
      7.599756752501 
      7.599758371393 
      7.599771801320 
      7.586739828313 
      7.586717873414 
      7.576027311990 
      7.626662147408 
      7.626645036648 
      7.626662910639 
      7.613402102376 
      7.613397458792 
      7.599407569745 
      7.646964399701 
      7.646937018450 
      7.646953197033 
      7.638153498157 
      7.638166172181 
      7.626392819788 
      7.654405257639 
      7.654349913806 
      7.654364328456 
      7.652597556087 
      7.652630929003 
      7.646817605976 
      7.654365809601 
      7.652631639286 
      7.646818636280 
      7.654351952108 
      7.652599521239 
      7.654400903401 
      7.646952285896 
      7.638171690741 
      7.626395854461 
      7.646930541015 
      7.638154276116 
      7.646970564527 
      7.626667079174 
      7.613403633668 
      7.599409085216 
      7.626642818433 
      7.613399947860 
      7.626668313525 
      7.599780672155 
      7.586725828395 
      7.576029588618 
      7.599757217636 
      7.586734950166 
      7.599760502908 
      7.576335986832 
      7.569149855009 
      7.566837747869 
      7.576326082029 
      7.569170392949 
      7.576302117740 
      7.566865438367 
      7.569127649941 
      7.576431179453 
      7.566879618967 
      7.569151840787 
      7.566835829718 
      7.576145931633 
      7.586679003916 
      7.599933222044 
      7.576176191531 
      7.586693769062 
      7.576130322288 
      7.599534804290 
      7.613362568147 
      7.626783530865 
      7.599563230355 
      7.613361878013 
      7.599537321776 
      7.626483632133 
      7.638146508322 
      7.647000101422 
      7.626498672518 
      7.638132837777 
      7.626503469292 
      7.646864761984 
      7.652616999481 
      7.654359153643 
      7.646864141534 
      7.652597144604 
      7.646893075521 
      7.654366009168 
      7.652623383488 
      7.646816577114 
      7.654354121707 
      7.652604074500 
      7.654394131753 
      7.646951645484 
      7.638168453302 
      7.626394049157 
      7.646932279832 
      7.638155231129 
      7.646970556563 
      7.626666849429 
      7.613402789536 
      7.599408642689 
      7.626642681489 
      7.613399860975 
      7.626668483963 
      7.599780680406 
      7.586725185277 
      7.576029414574 
      7.599757500459 
      7.586734594554 
      7.599761229918 
      7.576336025574 
      7.569150039267 
      7.566838493298 
      7.576326336374 
      7.569170140012 
      7.576302583256 
      7.566866473130 
      7.569128445965 
      7.576431066666 
      7.566880199749 
      7.569151719872 
      7.566835506564 
      7.576145849568 
      7.586679087982 
      7.599932519046 
      7.576176239736 
      7.586693970205 
      7.576130484463 
      7.599533951749 
      7.613362639054 
      7.626783669301 
      7.599562831357 
      7.613362191325 
      7.599537541527 
      7.626483683569 
      7.638146424589 
      7.647000201309 
      7.626498428298 
      7.638132798862 
      7.626503030222 
      7.646864848608 
      7.652616966220 
      7.654359203505 
      7.646864211401 
      7.652597078841 
      7.646893082837 
      7.654366043989 
      7.652623381352 
      7.646816572387 
      7.654354164590 
      7.652604070288 
      7.654394178114 
      7.646951648532 
      7.638168455880 
      7.626394043611 
      7.646932282782 
      7.638155233480 
      7.646970561347 
      7.626666847682 
      7.613402790327 
      7.599408641640 
      7.626642680286 
      7.613399861593 
      7.626668483352 
      7.599780679799 
      7.586725185375 
      7.576029414504 
      7.599757500085 
      7.586734594645 
      7.599761229705 
      7.576336025476 
      7.569150039271 
      7.566838493303 
      7.576326336311 
      7.569170140022 
      7.576302583215 
      7.566866473119 
      7.569128445964 
      7.576431066668 
      7.566880199740 
      7.569151719873 
      7.566835506557 
      7.576145849567 
      7.586679087982 
      7.599932519046 
      7.576176239735 
      7.586693970205 
      7.576130484461 
      7.599533951748 
      7.613362639054 
      7.626783669302 
      7.599562831357 
      7.613362191325 
      7.599537541527 
      7.626483683569 
      7.638146424589 
      7.647000201309 
      7.626498428298 
      7.638132798862 
      7.626503030222 
      7.646864848608 
      7.652616966220 
      7.654359203505 
      7.646864211401 
      7.652597078841 
      7.646893082837 
      7.654366043989 
      7.652623381352 
      7.646816572387 
      7.654354164590 
      7.652604070288 
      7.654394178114 
      7.646951648532 
      7.638168455880 
      7.626394043611 
      7.646932282782 
      7.638155233480 
      7.646970561347 
      7.626666847682 
      7.613402790327 
      7.599408641640 
      7.626642680286 
      7.613399861593 
      7.626668483352 
      7.599780679799 
      7.586725185375 
      7.576029414505 
      7.599757500085 
      7.586734594645 
      7.599761229705 
      7.576336025477 
      7.569150039270 
      7.566838493309 
      7.576326336312 
      7.569170140021 
      7.576302583214 
      7.566866473126 
      7.569128445958 
      7.576431066696 
      7.566880199746 
      7.569151719861 
      7.566835506556 
      7.576145849614 
      7.586679087944 
      7.599932519153 
      7.576176239783 
      7.586693970124 
      7.576130484520 
      7.599533952035 
      7.613362638850 
      7.626783669063 
      7.599562831693 
      7.613362190871 
      7.599537542187 
      7.626483684740 
      7.638146424307 
      7.647000192773 
      7.626498429905 
      7.638132797439 
      7.626503033358 
      7.646864845685 
      7.652616975016 
      7.654359159973 
      7.646864212756 
      7.652597084236 
      7.646893085713 
      7.654365994257 
      7.652623423490 
      7.646816640339 
      7.654354132346 
      7.652604130301 
      7.654394154183 
      7.646951612615 
      7.638168333480 
      7.626394559657 
      7.646932185396 
      7.638155260950 
      7.646970491614 
      7.626667313155 
      7.613402570831 
      7.599408163352 
      7.626642822696 
      7.613399500880 
      7.626668308542 
      7.599780455230 
      7.586725134479 
      7.576028859348 
      7.599757856076 
      7.586734431589 
      7.599761827639 
      7.576336015043 
      7.569151166843 
      7.566838715833 
      7.576326488237 
      7.569170339879 
      7.576302634339 
      7.566866733744 
      7.569128940077 
      7.576430886847 
      7.566879812636 
      7.569152012071 
      7.566834816857 
      7.576145250568 
      7.586678377956 
      7.599932129544 
      7.576176078651 
      7.586694304559 
      7.576130795082 
      7.599533004721 
      7.613361460661 
      7.626783558607 
      7.599562642858 
      7.613362291186 
      7.599538122193 
      7.626483010432 
      7.638145933221 
      7.646999835408 
      7.626497980395 
      7.638132552065 
      7.626503591640 
      7.646866009751 
      7.652616451070 
      7.654361067943 
      7.646864371996 
      7.652596518466 
      7.646893058303 
      7.646893058303 
      7.646864371996 
      7.646866009751 
      7.652596518466 
      7.652616451070 
      7.654361067943 