# vtk DataFile Version 2.0
NDG-FEM NonhydrostaticStandingWave2d Simulation
ASCII
DATASET UNSTRUCTURED_GRID

POINTS 160 double
0.00000000000000000000  0.00000000000000000000  0.00000000000000000000
1.00000000000000000000  0.00000000000000000000  0.00000000000000000000
0.00000000000000000000  1.00000000000000000000  0.00000000000000000000
1.00000000000000000000  1.00000000000000000000  0.00000000000000000000
1.00000000000000000000  0.00000000000000000000  0.00000000000000000000
2.00000000000000000000  0.00000000000000000000  0.00000000000000000000
1.00000000000000000000  1.00000000000000000000  0.00000000000000000000
2.00000000000000000000  1.00000000000000000000  0.00000000000000000000
2.00000000000000000000  0.00000000000000000000  0.00000000000000000000
3.00000000000000000000  0.00000000000000000000  0.00000000000000000000
2.00000000000000000000  1.00000000000000000000  0.00000000000000000000
3.00000000000000000000  1.00000000000000000000  0.00000000000000000000
3.00000000000000000000  0.00000000000000000000  0.00000000000000000000
4.00000000000000000000  0.00000000000000000000  0.00000000000000000000
3.00000000000000000000  1.00000000000000000000  0.00000000000000000000
4.00000000000000000000  1.00000000000000000000  0.00000000000000000000
4.00000000000000000000  0.00000000000000000000  0.00000000000000000000
5.00000000000000000000  0.00000000000000000000  0.00000000000000000000
4.00000000000000000000  1.00000000000000000000  0.00000000000000000000
5.00000000000000000000  1.00000000000000000000  0.00000000000000000000
5.00000000000000000000  0.00000000000000000000  0.00000000000000000000
6.00000000000000000000  0.00000000000000000000  0.00000000000000000000
5.00000000000000000000  1.00000000000000000000  0.00000000000000000000
6.00000000000000000000  1.00000000000000000000  0.00000000000000000000
6.00000000000000000000  0.00000000000000000000  0.00000000000000000000
7.00000000000000000000  0.00000000000000000000  0.00000000000000000000
6.00000000000000000000  1.00000000000000000000  0.00000000000000000000
7.00000000000000000000  1.00000000000000000000  0.00000000000000000000
7.00000000000000000000  0.00000000000000000000  0.00000000000000000000
8.00000000000000000000  0.00000000000000000000  0.00000000000000000000
7.00000000000000000000  1.00000000000000000000  0.00000000000000000000
8.00000000000000000000  1.00000000000000000000  0.00000000000000000000
8.00000000000000000000  0.00000000000000000000  0.00000000000000000000
9.00000000000000000000  0.00000000000000000000  0.00000000000000000000
8.00000000000000000000  1.00000000000000000000  0.00000000000000000000
9.00000000000000000000  1.00000000000000000000  0.00000000000000000000
9.00000000000000000000  0.00000000000000000000  0.00000000000000000000
10.00000000000000000000  0.00000000000000000000  0.00000000000000000000
9.00000000000000000000  1.00000000000000000000  0.00000000000000000000
10.00000000000000000000  1.00000000000000000000  0.00000000000000000000
10.00000000000000000000  0.00000000000000000000  0.00000000000000000000
11.00000000000000000000  0.00000000000000000000  0.00000000000000000000
10.00000000000000000000  1.00000000000000000000  0.00000000000000000000
11.00000000000000000000  1.00000000000000000000  0.00000000000000000000
11.00000000000000000000  0.00000000000000000000  0.00000000000000000000
12.00000000000000000000  0.00000000000000000000  0.00000000000000000000
11.00000000000000000000  1.00000000000000000000  0.00000000000000000000
12.00000000000000000000  1.00000000000000000000  0.00000000000000000000
12.00000000000000000000  0.00000000000000000000  0.00000000000000000000
13.00000000000000000000  0.00000000000000000000  0.00000000000000000000
12.00000000000000000000  1.00000000000000000000  0.00000000000000000000
13.00000000000000000000  1.00000000000000000000  0.00000000000000000000
13.00000000000000000000  0.00000000000000000000  0.00000000000000000000
14.00000000000000000000  0.00000000000000000000  0.00000000000000000000
13.00000000000000000000  1.00000000000000000000  0.00000000000000000000
14.00000000000000000000  1.00000000000000000000  0.00000000000000000000
14.00000000000000000000  0.00000000000000000000  0.00000000000000000000
15.00000000000000000000  0.00000000000000000000  0.00000000000000000000
14.00000000000000000000  1.00000000000000000000  0.00000000000000000000
15.00000000000000000000  1.00000000000000000000  0.00000000000000000000
15.00000000000000000000  0.00000000000000000000  0.00000000000000000000
16.00000000000000000000  0.00000000000000000000  0.00000000000000000000
15.00000000000000000000  1.00000000000000000000  0.00000000000000000000
16.00000000000000000000  1.00000000000000000000  0.00000000000000000000
16.00000000000000000000  0.00000000000000000000  0.00000000000000000000
17.00000000000000000000  0.00000000000000000000  0.00000000000000000000
16.00000000000000000000  1.00000000000000000000  0.00000000000000000000
17.00000000000000000000  1.00000000000000000000  0.00000000000000000000
17.00000000000000000000  0.00000000000000000000  0.00000000000000000000
18.00000000000000000000  0.00000000000000000000  0.00000000000000000000
17.00000000000000000000  1.00000000000000000000  0.00000000000000000000
18.00000000000000000000  1.00000000000000000000  0.00000000000000000000
18.00000000000000000000  0.00000000000000000000  0.00000000000000000000
19.00000000000000000000  0.00000000000000000000  0.00000000000000000000
18.00000000000000000000  1.00000000000000000000  0.00000000000000000000
19.00000000000000000000  1.00000000000000000000  0.00000000000000000000
19.00000000000000000000  0.00000000000000000000  0.00000000000000000000
20.00000000000000000000  0.00000000000000000000  0.00000000000000000000
19.00000000000000000000  1.00000000000000000000  0.00000000000000000000
20.00000000000000000000  1.00000000000000000000  0.00000000000000000000
0.00000000000000000000  1.00000000000000000000  0.00000000000000000000
1.00000000000000000000  1.00000000000000000000  0.00000000000000000000
0.00000000000000000000  2.00000000000000000000  0.00000000000000000000
1.00000000000000000000  2.00000000000000000000  0.00000000000000000000
1.00000000000000000000  1.00000000000000000000  0.00000000000000000000
2.00000000000000000000  1.00000000000000000000  0.00000000000000000000
1.00000000000000000000  2.00000000000000000000  0.00000000000000000000
2.00000000000000000000  2.00000000000000000000  0.00000000000000000000
2.00000000000000000000  1.00000000000000000000  0.00000000000000000000
3.00000000000000000000  1.00000000000000000000  0.00000000000000000000
2.00000000000000000000  2.00000000000000000000  0.00000000000000000000
3.00000000000000000000  2.00000000000000000000  0.00000000000000000000
3.00000000000000000000  1.00000000000000000000  0.00000000000000000000
4.00000000000000000000  1.00000000000000000000  0.00000000000000000000
3.00000000000000000000  2.00000000000000000000  0.00000000000000000000
4.00000000000000000000  2.00000000000000000000  0.00000000000000000000
4.00000000000000000000  1.00000000000000000000  0.00000000000000000000
5.00000000000000000000  1.00000000000000000000  0.00000000000000000000
4.00000000000000000000  2.00000000000000000000  0.00000000000000000000
5.00000000000000000000  2.00000000000000000000  0.00000000000000000000
5.00000000000000000000  1.00000000000000000000  0.00000000000000000000
6.00000000000000000000  1.00000000000000000000  0.00000000000000000000
5.00000000000000000000  2.00000000000000000000  0.00000000000000000000
6.00000000000000000000  2.00000000000000000000  0.00000000000000000000
6.00000000000000000000  1.00000000000000000000  0.00000000000000000000
7.00000000000000000000  1.00000000000000000000  0.00000000000000000000
6.00000000000000000000  2.00000000000000000000  0.00000000000000000000
7.00000000000000000000  2.00000000000000000000  0.00000000000000000000
7.00000000000000000000  1.00000000000000000000  0.00000000000000000000
8.00000000000000000000  1.00000000000000000000  0.00000000000000000000
7.00000000000000000000  2.00000000000000000000  0.00000000000000000000
8.00000000000000000000  2.00000000000000000000  0.00000000000000000000
8.00000000000000000000  1.00000000000000000000  0.00000000000000000000
9.00000000000000000000  1.00000000000000000000  0.00000000000000000000
8.00000000000000000000  2.00000000000000000000  0.00000000000000000000
9.00000000000000000000  2.00000000000000000000  0.00000000000000000000
9.00000000000000000000  1.00000000000000000000  0.00000000000000000000
10.00000000000000000000  1.00000000000000000000  0.00000000000000000000
9.00000000000000000000  2.00000000000000000000  0.00000000000000000000
10.00000000000000000000  2.00000000000000000000  0.00000000000000000000
10.00000000000000000000  1.00000000000000000000  0.00000000000000000000
11.00000000000000000000  1.00000000000000000000  0.00000000000000000000
10.00000000000000000000  2.00000000000000000000  0.00000000000000000000
11.00000000000000000000  2.00000000000000000000  0.00000000000000000000
11.00000000000000000000  1.00000000000000000000  0.00000000000000000000
12.00000000000000000000  1.00000000000000000000  0.00000000000000000000
11.00000000000000000000  2.00000000000000000000  0.00000000000000000000
12.00000000000000000000  2.00000000000000000000  0.00000000000000000000
12.00000000000000000000  1.00000000000000000000  0.00000000000000000000
13.00000000000000000000  1.00000000000000000000  0.00000000000000000000
12.00000000000000000000  2.00000000000000000000  0.00000000000000000000
13.00000000000000000000  2.00000000000000000000  0.00000000000000000000
13.00000000000000000000  1.00000000000000000000  0.00000000000000000000
14.00000000000000000000  1.00000000000000000000  0.00000000000000000000
13.00000000000000000000  2.00000000000000000000  0.00000000000000000000
14.00000000000000000000  2.00000000000000000000  0.00000000000000000000
14.00000000000000000000  1.00000000000000000000  0.00000000000000000000
15.00000000000000000000  1.00000000000000000000  0.00000000000000000000
14.00000000000000000000  2.00000000000000000000  0.00000000000000000000
15.00000000000000000000  2.00000000000000000000  0.00000000000000000000
15.00000000000000000000  1.00000000000000000000  0.00000000000000000000
16.00000000000000000000  1.00000000000000000000  0.00000000000000000000
15.00000000000000000000  2.00000000000000000000  0.00000000000000000000
16.00000000000000000000  2.00000000000000000000  0.00000000000000000000
16.00000000000000000000  1.00000000000000000000  0.00000000000000000000
17.00000000000000000000  1.00000000000000000000  0.00000000000000000000
16.00000000000000000000  2.00000000000000000000  0.00000000000000000000
17.00000000000000000000  2.00000000000000000000  0.00000000000000000000
17.00000000000000000000  1.00000000000000000000  0.00000000000000000000
18.00000000000000000000  1.00000000000000000000  0.00000000000000000000
17.00000000000000000000  2.00000000000000000000  0.00000000000000000000
18.00000000000000000000  2.00000000000000000000  0.00000000000000000000
18.00000000000000000000  1.00000000000000000000  0.00000000000000000000
19.00000000000000000000  1.00000000000000000000  0.00000000000000000000
18.00000000000000000000  2.00000000000000000000  0.00000000000000000000
19.00000000000000000000  2.00000000000000000000  0.00000000000000000000
19.00000000000000000000  1.00000000000000000000  0.00000000000000000000
20.00000000000000000000  1.00000000000000000000  0.00000000000000000000
19.00000000000000000000  2.00000000000000000000  0.00000000000000000000
20.00000000000000000000  2.00000000000000000000  0.00000000000000000000

CELLS 40 200
4 0 1 3 2 
4 4 5 7 6 
4 8 9 11 10 
4 12 13 15 14 
4 16 17 19 18 
4 20 21 23 22 
4 24 25 27 26 
4 28 29 31 30 
4 32 33 35 34 
4 36 37 39 38 
4 40 41 43 42 
4 44 45 47 46 
4 48 49 51 50 
4 52 53 55 54 
4 56 57 59 58 
4 60 61 63 62 
4 64 65 67 66 
4 68 69 71 70 
4 72 73 75 74 
4 76 77 79 78 
4 80 81 83 82 
4 84 85 87 86 
4 88 89 91 90 
4 92 93 95 94 
4 96 97 99 98 
4 100 101 103 102 
4 104 105 107 106 
4 108 109 111 110 
4 112 113 115 114 
4 116 117 119 118 
4 120 121 123 122 
4 124 125 127 126 
4 128 129 131 130 
4 132 133 135 134 
4 136 137 139 138 
4 140 141 143 142 
4 144 145 147 146 
4 148 149 151 150 
4 152 153 155 154 
4 156 157 159 158 

CELL_TYPES 40
9 9 9 9 9 9 9 9 9 9 9 9 
9 9 9 9 9 9 9 9 9 9 9 9 
9 9 9 9 9 9 9 9 9 9 9 9 
9 9 9 9 

POINT_DATA 160
SCALARS  H  double
LOOKUP_TABLE default
      7.530828320698 
      7.530217547618 
      7.530828320698 
      7.530217547618 
      7.530235035551 
      7.543712326473 
      7.530235035551 
      7.543712326473 
      7.543401848291 
      7.562176684361 
      7.543401848291 
      7.562176684361 
      7.561845738769 
      7.585918750144 
      7.561845738769 
      7.585918750144 
      7.585508593403 
      7.612102525721 
      7.585508593403 
      7.612102525721 
      7.611677286158 
      7.638291603232 
      7.611677286158 
      7.638291603232 
      7.637887191211 
      7.661900289985 
      7.637887191211 
      7.661900289985 
      7.661555597270 
      7.680609083096 
      7.661555597270 
      7.680609083096 
      7.680352875840 
      7.692640941967 
      7.680352875840 
      7.692640941967 
      7.692429920490 
      7.696707839721 
      7.692429920490 
      7.696707839721 
      7.696707839721 
      7.692429920490 
      7.696707839721 
      7.692429920490 
      7.692640941967 
      7.680352875840 
      7.692640941967 
      7.680352875840 
      7.680609083096 
      7.661555597270 
      7.680609083096 
      7.661555597270 
      7.661900289985 
      7.637887191211 
      7.661900289985 
      7.637887191211 
      7.638291603232 
      7.611677286158 
      7.638291603232 
      7.611677286158 
      7.612102525721 
      7.585508593403 
      7.612102525721 
      7.585508593403 
      7.585918750144 
      7.561845738769 
      7.585918750144 
      7.561845738769 
      7.562176684361 
      7.543401848291 
      7.562176684361 
      7.543401848291 
      7.543712326473 
      7.530235035551 
      7.543712326473 
      7.530235035551 
      7.530217547618 
      7.530828320698 
      7.530217547618 
      7.530828320698 
      7.530828320698 
      7.530217547618 
      7.530828320698 
      7.530217547618 
      7.530235035551 
      7.543712326473 
      7.530235035551 
      7.543712326473 
      7.543401848291 
      7.562176684361 
      7.543401848291 
      7.562176684361 
      7.561845738769 
      7.585918750144 
      7.561845738769 
      7.585918750144 
      7.585508593403 
      7.612102525721 
      7.585508593403 
      7.612102525721 
      7.611677286158 
      7.638291603232 
      7.611677286158 
      7.638291603232 
      7.637887191211 
      7.661900289985 
      7.637887191211 
      7.661900289985 
      7.661555597270 
      7.680609083096 
      7.661555597270 
      7.680609083096 
      7.680352875840 
      7.692640941967 
      7.680352875840 
      7.692640941967 
      7.692429920490 
      7.696707839721 
      7.692429920490 
      7.696707839721 
      7.696707839721 
      7.692429920490 
      7.696707839721 
      7.692429920490 
      7.692640941967 
      7.680352875840 
      7.692640941967 
      7.680352875840 
      7.680609083096 
      7.661555597270 
      7.680609083096 
      7.661555597270 
      7.661900289985 
      7.637887191211 
      7.661900289985 
      7.637887191211 
      7.638291603232 
      7.611677286158 
      7.638291603232 
      7.611677286158 
      7.612102525721 
      7.585508593403 
      7.612102525721 
      7.585508593403 
      7.585918750144 
      7.561845738769 
      7.585918750144 
      7.561845738769 
      7.562176684361 
      7.543401848291 
      7.562176684361 
      7.543401848291 
      7.543712326473 
      7.530235035551 
      7.543712326473 
      7.530235035551 
      7.530217547618 
      7.530828320698 
      7.530217547618 
      7.530828320698 
SCALARS  HU  double
LOOKUP_TABLE default
     -0.003903246059 
     -0.087537433716 
     -0.003903246059 
     -0.087537433716 
     -0.093528574079 
     -0.171582303881 
     -0.093528574079 
     -0.171582303881 
     -0.175829290323 
     -0.236774988425 
     -0.175829290323 
     -0.236774988425 
     -0.240090410505 
     -0.279432774781 
     -0.240090410505 
     -0.279432774781 
     -0.280952683141 
     -0.294502762228 
     -0.280952683141 
     -0.294502762228 
     -0.294225966567 
     -0.280798523731 
     -0.294225966567 
     -0.280798523731 
     -0.278720903340 
     -0.239665334324 
     -0.278720903340 
     -0.239665334324 
     -0.236009831139 
     -0.175161072565 
     -0.236009831139 
     -0.175161072565 
     -0.170343462287 
     -0.093560405174 
     -0.170343462287 
     -0.093560405174 
     -0.088694306878 
     -0.002231067256 
     -0.088694306878 
     -0.002231067256 
      0.002231067256 
      0.088694306878 
      0.002231067256 
      0.088694306878 
      0.093560405174 
      0.170343462287 
      0.093560405174 
      0.170343462287 
      0.175161072565 
      0.236009831139 
      0.175161072565 
      0.236009831139 
      0.239665334324 
      0.278720903340 
      0.239665334324 
      0.278720903340 
      0.280798523731 
      0.294225966567 
      0.280798523731 
      0.294225966567 
      0.294502762228 
      0.280952683141 
      0.294502762228 
      0.280952683141 
      0.279432774781 
      0.240090410505 
      0.279432774781 
      0.240090410505 
      0.236774988425 
      0.175829290323 
      0.236774988425 
      0.175829290323 
      0.171582303881 
      0.093528574079 
      0.171582303881 
      0.093528574079 
      0.087537433716 
      0.003903246059 
      0.087537433716 
      0.003903246059 
     -0.003903246059 
     -0.087537433716 
     -0.003903246059 
     -0.087537433716 
     -0.093528574079 
     -0.171582303881 
     -0.093528574079 
     -0.171582303881 
     -0.175829290323 
     -0.236774988425 
     -0.175829290323 
     -0.236774988425 
     -0.240090410505 
     -0.279432774781 
     -0.240090410505 
     -0.279432774781 
     -0.280952683141 
     -0.294502762228 
     -0.280952683141 
     -0.294502762228 
     -0.294225966567 
     -0.280798523731 
     -0.294225966567 
     -0.280798523731 
     -0.278720903340 
     -0.239665334324 
     -0.278720903340 
     -0.239665334324 
     -0.236009831139 
     -0.175161072565 
     -0.236009831139 
     -0.175161072565 
     -0.170343462287 
     -0.093560405174 
     -0.170343462287 
     -0.093560405174 
     -0.088694306878 
     -0.002231067256 
     -0.088694306878 
     -0.002231067256 
      0.002231067256 
      0.088694306878 
      0.002231067256 
      0.088694306878 
      0.093560405174 
      0.170343462287 
      0.093560405174 
      0.170343462287 
      0.175161072565 
      0.236009831139 
      0.175161072565 
      0.236009831139 
      0.239665334324 
      0.278720903340 
      0.239665334324 
      0.278720903340 
      0.280798523731 
      0.294225966567 
      0.280798523731 
      0.294225966567 
      0.294502762228 
      0.280952683141 
      0.294502762228 
      0.280952683141 
      0.279432774781 
      0.240090410505 
      0.279432774781 
      0.240090410505 
      0.236774988425 
      0.175829290323 
      0.236774988425 
      0.175829290323 
      0.171582303881 
      0.093528574079 
      0.171582303881 
      0.093528574079 
      0.087537433716 
      0.003903246059 
      0.087537433716 
      0.003903246059 
SCALARS  HV  double
LOOKUP_TABLE default
     -0.000000000000 
     -0.000000000000 
     -0.000000000000 
     -0.000000000000 
     -0.000000000000 
     -0.000000000000 
     -0.000000000000 
     -0.000000000000 
     -0.000000000000 
     -0.000000000000 
     -0.000000000000 
     -0.000000000000 
     -0.000000000000 
      0.000000000000 
     -0.000000000000 
      0.000000000000 
      0.000000000000 
     -0.000000000000 
     -0.000000000000 
      0.000000000000 
     -0.000000000000 
      0.000000000000 
      0.000000000000 
     -0.000000000000 
      0.000000000000 
     -0.000000000000 
     -0.000000000000 
      0.000000000000 
     -0.000000000000 
     -0.000000000000 
     -0.000000000000 
      0.000000000000 
     -0.000000000000 
     -0.000000000000 
      0.000000000000 
     -0.000000000000 
      0.000000000000 
      0.000000000000 
     -0.000000000000 
      0.000000000000 
      0.000000000000 
     -0.000000000000 
      0.000000000000 
     -0.000000000000 
     -0.000000000000 
      0.000000000000 
     -0.000000000000 
      0.000000000000 
     -0.000000000000 
      0.000000000000 
      0.000000000000 
      0.000000000000 
      0.000000000000 
      0.000000000000 
      0.000000000000 
     -0.000000000000 
      0.000000000000 
      0.000000000000 
     -0.000000000000 
     -0.000000000000 
      0.000000000000 
      0.000000000000 
     -0.000000000000 
      0.000000000000 
      0.000000000000 
      0.000000000000 
      0.000000000000 
      0.000000000000 
      0.000000000000 
      0.000000000000 
      0.000000000000 
      0.000000000000 
      0.000000000000 
      0.000000000000 
      0.000000000000 
     -0.000000000000 
      0.000000000000 
     -0.000000000000 
     -0.000000000000 
     -0.000000000000 
     -0.000000000000 
     -0.000000000000 
     -0.000000000000 
     -0.000000000000 
     -0.000000000000 
     -0.000000000000 
     -0.000000000000 
     -0.000000000000 
     -0.000000000000 
     -0.000000000000 
     -0.000000000000 
     -0.000000000000 
     -0.000000000000 
      0.000000000000 
     -0.000000000000 
      0.000000000000 
     -0.000000000000 
      0.000000000000 
     -0.000000000000 
     -0.000000000000 
      0.000000000000 
      0.000000000000 
     -0.000000000000 
     -0.000000000000 
      0.000000000000 
     -0.000000000000 
     -0.000000000000 
     -0.000000000000 
     -0.000000000000 
      0.000000000000 
     -0.000000000000 
     -0.000000000000 
      0.000000000000 
     -0.000000000000 
     -0.000000000000 
      0.000000000000 
     -0.000000000000 
      0.000000000000 
      0.000000000000 
     -0.000000000000 
      0.000000000000 
     -0.000000000000 
      0.000000000000 
      0.000000000000 
     -0.000000000000 
     -0.000000000000 
      0.000000000000 
      0.000000000000 
     -0.000000000000 
     -0.000000000000 
      0.000000000000 
     -0.000000000000 
     -0.000000000000 
     -0.000000000000 
      0.000000000000 
     -0.000000000000 
     -0.000000000000 
     -0.000000000000 
     -0.000000000000 
      0.000000000000 
      0.000000000000 
     -0.000000000000 
      0.000000000000 
      0.000000000000 
     -0.000000000000 
      0.000000000000 
     -0.000000000000 
      0.000000000000 
      0.000000000000 
     -0.000000000000 
      0.000000000000 
      0.000000000000 
     -0.000000000000 
     -0.000000000000 
      0.000000000000 
     -0.000000000000 
      0.000000000000 
     -0.000000000000 
     -0.000000000000 
     -0.000000000000 
SCALARS  HW  double
LOOKUP_TABLE default
      0.332025020112 
      0.338358730042 
      0.332025020112 
      0.338358730042 
      0.334812111732 
      0.281422429101 
      0.334812111732 
      0.281422429101 
      0.279267368181 
      0.204247931761 
      0.279267368181 
      0.204247931761 
      0.202268804254 
      0.104885474779 
      0.202268804254 
      0.104885474779 
      0.103690170627 
     -0.004453350329 
      0.103690170627 
     -0.004453350329 
     -0.004842455396 
     -0.113592064942 
     -0.004842455396 
     -0.113592064942 
     -0.113160121905 
     -0.211772858063 
     -0.113160121905 
     -0.211772858063 
     -0.210643761160 
     -0.289439209379 
     -0.210643761160 
     -0.289439209379 
     -0.287806013230 
     -0.339497305296 
     -0.287806013230 
     -0.339497305296 
     -0.337652848814 
     -0.356045009847 
     -0.337652848814 
     -0.356045009847 
     -0.356045009847 
     -0.337652848814 
     -0.356045009847 
     -0.337652848814 
     -0.339497305296 
     -0.287806013230 
     -0.339497305296 
     -0.287806013230 
     -0.289439209379 
     -0.210643761160 
     -0.289439209379 
     -0.210643761160 
     -0.211772858063 
     -0.113160121905 
     -0.211772858063 
     -0.113160121905 
     -0.113592064942 
     -0.004842455396 
     -0.113592064942 
     -0.004842455396 
     -0.004453350329 
      0.103690170627 
     -0.004453350329 
      0.103690170627 
      0.104885474779 
      0.202268804254 
      0.104885474779 
      0.202268804254 
      0.204247931761 
      0.279267368181 
      0.204247931761 
      0.279267368181 
      0.281422429101 
      0.334812111732 
      0.281422429101 
      0.334812111732 
      0.338358730042 
      0.332025020112 
      0.338358730042 
      0.332025020112 
      0.332025020112 
      0.338358730042 
      0.332025020112 
      0.338358730042 
      0.334812111732 
      0.281422429101 
      0.334812111732 
      0.281422429101 
      0.279267368181 
      0.204247931761 
      0.279267368181 
      0.204247931761 
      0.202268804254 
      0.104885474779 
      0.202268804254 
      0.104885474779 
      0.103690170627 
     -0.004453350329 
      0.103690170627 
     -0.004453350329 
     -0.004842455396 
     -0.113592064942 
     -0.004842455396 
     -0.113592064942 
     -0.113160121905 
     -0.211772858063 
     -0.113160121905 
     -0.211772858063 
     -0.210643761160 
     -0.289439209379 
     -0.210643761160 
     -0.289439209379 
     -0.287806013230 
     -0.339497305296 
     -0.287806013230 
     -0.339497305296 
     -0.337652848814 
     -0.356045009847 
     -0.337652848814 
     -0.356045009847 
     -0.356045009847 
     -0.337652848814 
     -0.356045009847 
     -0.337652848814 
     -0.339497305296 
     -0.287806013230 
     -0.339497305296 
     -0.287806013230 
     -0.289439209379 
     -0.210643761160 
     -0.289439209379 
     -0.210643761160 
     -0.211772858063 
     -0.113160121905 
     -0.211772858063 
     -0.113160121905 
     -0.113592064942 
     -0.004842455396 
     -0.113592064942 
     -0.004842455396 
     -0.004453350329 
      0.103690170627 
     -0.004453350329 
      0.103690170627 
      0.104885474779 
      0.202268804254 
      0.104885474779 
      0.202268804254 
      0.204247931761 
      0.279267368181 
      0.204247931761 
      0.279267368181 
      0.281422429101 
      0.334812111732 
      0.281422429101 
      0.334812111732 
      0.338358730042 
      0.332025020112 
      0.338358730042 
      0.332025020112 
SCALARS  q  double
LOOKUP_TABLE default
      0.455998756658 
      0.480598174139 
      0.455998756658 
      0.480598174139 
      0.475325314492 
      0.396221313930 
      0.475325314492 
      0.396221313930 
      0.393151548391 
      0.289500788438 
      0.393151548391 
      0.289500788438 
      0.286350974352 
      0.151176988108 
      0.286350974352 
      0.151176988108 
      0.148867824902 
     -0.000779608583 
      0.148867824902 
     -0.000779608583 
     -0.002159208605 
     -0.152637757267 
     -0.002159208605 
     -0.152637757267 
     -0.152917668319 
     -0.289451151909 
     -0.152917668319 
     -0.289451151909 
     -0.288613903556 
     -0.397874535122 
     -0.288613903556 
     -0.397874535122 
     -0.396042516753 
     -0.467926708734 
     -0.396042516753 
     -0.467926708734 
     -0.465463083328 
     -0.491118520350 
     -0.465463083328 
     -0.491118520350 
     -0.491118520350 
     -0.465463083328 
     -0.491118520350 
     -0.465463083328 
     -0.467926708734 
     -0.396042516753 
     -0.467926708734 
     -0.396042516753 
     -0.397874535122 
     -0.288613903556 
     -0.397874535122 
     -0.288613903556 
     -0.289451151909 
     -0.152917668319 
     -0.289451151909 
     -0.152917668319 
     -0.152637757267 
     -0.002159208605 
     -0.152637757267 
     -0.002159208605 
     -0.000779608583 
      0.148867824902 
     -0.000779608583 
      0.148867824902 
      0.151176988108 
      0.286350974352 
      0.151176988108 
      0.286350974352 
      0.289500788438 
      0.393151548391 
      0.289500788438 
      0.393151548391 
      0.396221313930 
      0.475325314492 
      0.396221313930 
      0.475325314492 
      0.480598174139 
      0.455998756658 
      0.480598174139 
      0.455998756658 
      0.455998756658 
      0.480598174139 
      0.455998756658 
      0.480598174139 
      0.475325314492 
      0.396221313930 
      0.475325314492 
      0.396221313930 
      0.393151548391 
      0.289500788438 
      0.393151548391 
      0.289500788438 
      0.286350974352 
      0.151176988108 
      0.286350974352 
      0.151176988108 
      0.148867824902 
     -0.000779608583 
      0.148867824902 
     -0.000779608583 
     -0.002159208605 
     -0.152637757267 
     -0.002159208605 
     -0.152637757267 
     -0.152917668319 
     -0.289451151909 
     -0.152917668319 
     -0.289451151909 
     -0.288613903556 
     -0.397874535122 
     -0.288613903556 
     -0.397874535122 
     -0.396042516753 
     -0.467926708734 
     -0.396042516753 
     -0.467926708734 
     -0.465463083328 
     -0.491118520350 
     -0.465463083328 
     -0.491118520350 
     -0.491118520350 
     -0.465463083328 
     -0.491118520350 
     -0.465463083328 
     -0.467926708734 
     -0.396042516753 
     -0.467926708734 
     -0.396042516753 
     -0.397874535122 
     -0.288613903556 
     -0.397874535122 
     -0.288613903556 
     -0.289451151909 
     -0.152917668319 
     -0.289451151909 
     -0.152917668319 
     -0.152637757267 
     -0.002159208605 
     -0.152637757267 
     -0.002159208605 
     -0.000779608583 
      0.148867824902 
     -0.000779608583 
      0.148867824902 
      0.151176988108 
      0.286350974352 
      0.151176988108 
      0.286350974352 
      0.289500788438 
      0.393151548391 
      0.289500788438 
      0.393151548391 
      0.396221313930 