# vtk DataFile Version 2.0
NDG-FEM NonhydrostaticStandingWave2d Simulation
ASCII
DATASET UNSTRUCTURED_GRID

POINTS 1350 double
0.00000000000000000000  0.00000000000000000000  0.00000000000000000000
1.00000000000000000000  0.00000000000000000000  0.00000000000000000000
2.00000000000000000000  0.00000000000000000000  0.00000000000000000000
0.00000000000000000000  1.00000000000000000000  0.00000000000000000000
1.00000000000000000000  1.00000000000000000000  0.00000000000000000000
2.00000000000000000000  1.00000000000000000000  0.00000000000000000000
0.00000000000000000000  2.00000000000000000000  0.00000000000000000000
1.00000000000000000000  2.00000000000000000000  0.00000000000000000000
2.00000000000000000000  2.00000000000000000000  0.00000000000000000000
2.00000000000000000000  0.00000000000000000000  0.00000000000000000000
3.00000000000000000000  0.00000000000000000000  0.00000000000000000000
4.00000000000000000000  0.00000000000000000000  0.00000000000000000000
2.00000000000000000000  1.00000000000000000000  0.00000000000000000000
3.00000000000000000000  1.00000000000000000000  0.00000000000000000000
4.00000000000000000000  1.00000000000000000000  0.00000000000000000000
2.00000000000000000000  2.00000000000000000000  0.00000000000000000000
3.00000000000000000000  2.00000000000000000000  0.00000000000000000000
4.00000000000000000000  2.00000000000000000000  0.00000000000000000000
4.00000000000000000000  0.00000000000000000000  0.00000000000000000000
5.00000000000000000000  0.00000000000000000000  0.00000000000000000000
6.00000000000000000000  0.00000000000000000000  0.00000000000000000000
4.00000000000000000000  1.00000000000000000000  0.00000000000000000000
5.00000000000000000000  1.00000000000000000000  0.00000000000000000000
6.00000000000000000000  1.00000000000000000000  0.00000000000000000000
4.00000000000000000000  2.00000000000000000000  0.00000000000000000000
5.00000000000000000000  2.00000000000000000000  0.00000000000000000000
6.00000000000000000000  2.00000000000000000000  0.00000000000000000000
6.00000000000000000000  0.00000000000000000000  0.00000000000000000000
7.00000000000000000000  0.00000000000000000000  0.00000000000000000000
8.00000000000000000000  0.00000000000000000000  0.00000000000000000000
6.00000000000000000000  1.00000000000000000000  0.00000000000000000000
7.00000000000000000000  1.00000000000000000000  0.00000000000000000000
8.00000000000000000000  1.00000000000000000000  0.00000000000000000000
6.00000000000000000000  2.00000000000000000000  0.00000000000000000000
7.00000000000000000000  2.00000000000000000000  0.00000000000000000000
8.00000000000000000000  2.00000000000000000000  0.00000000000000000000
8.00000000000000000000  0.00000000000000000000  0.00000000000000000000
9.00000000000000000000  0.00000000000000000000  0.00000000000000000000
10.00000000000000000000  0.00000000000000000000  0.00000000000000000000
8.00000000000000000000  1.00000000000000000000  0.00000000000000000000
9.00000000000000000000  1.00000000000000000000  0.00000000000000000000
10.00000000000000000000  1.00000000000000000000  0.00000000000000000000
8.00000000000000000000  2.00000000000000000000  0.00000000000000000000
9.00000000000000000000  2.00000000000000000000  0.00000000000000000000
10.00000000000000000000  2.00000000000000000000  0.00000000000000000000
10.00000000000000000000  0.00000000000000000000  0.00000000000000000000
11.00000000000000000000  0.00000000000000000000  0.00000000000000000000
12.00000000000000000000  0.00000000000000000000  0.00000000000000000000
10.00000000000000000000  1.00000000000000000000  0.00000000000000000000
11.00000000000000000000  1.00000000000000000000  0.00000000000000000000
12.00000000000000000000  1.00000000000000000000  0.00000000000000000000
10.00000000000000000000  2.00000000000000000000  0.00000000000000000000
11.00000000000000000000  2.00000000000000000000  0.00000000000000000000
12.00000000000000000000  2.00000000000000000000  0.00000000000000000000
12.00000000000000000000  0.00000000000000000000  0.00000000000000000000
13.00000000000000000000  0.00000000000000000000  0.00000000000000000000
14.00000000000000000000  0.00000000000000000000  0.00000000000000000000
12.00000000000000000000  1.00000000000000000000  0.00000000000000000000
13.00000000000000000000  1.00000000000000000000  0.00000000000000000000
14.00000000000000000000  1.00000000000000000000  0.00000000000000000000
12.00000000000000000000  2.00000000000000000000  0.00000000000000000000
13.00000000000000000000  2.00000000000000000000  0.00000000000000000000
14.00000000000000000000  2.00000000000000000000  0.00000000000000000000
14.00000000000000000000  0.00000000000000000000  0.00000000000000000000
15.00000000000000000000  0.00000000000000000000  0.00000000000000000000
16.00000000000000000000  0.00000000000000000000  0.00000000000000000000
14.00000000000000000000  1.00000000000000000000  0.00000000000000000000
15.00000000000000000000  1.00000000000000000000  0.00000000000000000000
16.00000000000000000000  1.00000000000000000000  0.00000000000000000000
14.00000000000000000000  2.00000000000000000000  0.00000000000000000000
15.00000000000000000000  2.00000000000000000000  0.00000000000000000000
16.00000000000000000000  2.00000000000000000000  0.00000000000000000000
16.00000000000000000000  0.00000000000000000000  0.00000000000000000000
17.00000000000000000000  0.00000000000000000000  0.00000000000000000000
18.00000000000000000000  0.00000000000000000000  0.00000000000000000000
16.00000000000000000000  1.00000000000000000000  0.00000000000000000000
17.00000000000000000000  1.00000000000000000000  0.00000000000000000000
18.00000000000000000000  1.00000000000000000000  0.00000000000000000000
16.00000000000000000000  2.00000000000000000000  0.00000000000000000000
17.00000000000000000000  2.00000000000000000000  0.00000000000000000000
18.00000000000000000000  2.00000000000000000000  0.00000000000000000000
18.00000000000000000000  0.00000000000000000000  0.00000000000000000000
19.00000000000000000000  0.00000000000000000000  0.00000000000000000000
20.00000000000000000000  0.00000000000000000000  0.00000000000000000000
18.00000000000000000000  1.00000000000000000000  0.00000000000000000000
19.00000000000000000000  1.00000000000000000000  0.00000000000000000000
20.00000000000000000000  1.00000000000000000000  0.00000000000000000000
18.00000000000000000000  2.00000000000000000000  0.00000000000000000000
19.00000000000000000000  2.00000000000000000000  0.00000000000000000000
20.00000000000000000000  2.00000000000000000000  0.00000000000000000000
20.00000000000000000000  0.00000000000000000000  0.00000000000000000000
21.00000000000000000000  0.00000000000000000000  0.00000000000000000000
22.00000000000000000000  0.00000000000000000000  0.00000000000000000000
20.00000000000000000000  1.00000000000000000000  0.00000000000000000000
21.00000000000000000000  1.00000000000000000000  0.00000000000000000000
22.00000000000000000000  1.00000000000000000000  0.00000000000000000000
20.00000000000000000000  2.00000000000000000000  0.00000000000000000000
21.00000000000000000000  2.00000000000000000000  0.00000000000000000000
22.00000000000000000000  2.00000000000000000000  0.00000000000000000000
22.00000000000000000000  0.00000000000000000000  0.00000000000000000000
23.00000000000000000000  0.00000000000000000000  0.00000000000000000000
24.00000000000000000000  0.00000000000000000000  0.00000000000000000000
22.00000000000000000000  1.00000000000000000000  0.00000000000000000000
23.00000000000000000000  1.00000000000000000000  0.00000000000000000000
24.00000000000000000000  1.00000000000000000000  0.00000000000000000000
22.00000000000000000000  2.00000000000000000000  0.00000000000000000000
23.00000000000000000000  2.00000000000000000000  0.00000000000000000000
24.00000000000000000000  2.00000000000000000000  0.00000000000000000000
24.00000000000000000000  0.00000000000000000000  0.00000000000000000000
25.00000000000000000000  0.00000000000000000000  0.00000000000000000000
26.00000000000000000000  0.00000000000000000000  0.00000000000000000000
24.00000000000000000000  1.00000000000000000000  0.00000000000000000000
25.00000000000000000000  1.00000000000000000000  0.00000000000000000000
26.00000000000000000000  1.00000000000000000000  0.00000000000000000000
24.00000000000000000000  2.00000000000000000000  0.00000000000000000000
25.00000000000000000000  2.00000000000000000000  0.00000000000000000000
26.00000000000000000000  2.00000000000000000000  0.00000000000000000000
26.00000000000000000000  0.00000000000000000000  0.00000000000000000000
27.00000000000000000000  0.00000000000000000000  0.00000000000000000000
28.00000000000000000000  0.00000000000000000000  0.00000000000000000000
26.00000000000000000000  1.00000000000000000000  0.00000000000000000000
27.00000000000000000000  1.00000000000000000000  0.00000000000000000000
28.00000000000000000000  1.00000000000000000000  0.00000000000000000000
26.00000000000000000000  2.00000000000000000000  0.00000000000000000000
27.00000000000000000000  2.00000000000000000000  0.00000000000000000000
28.00000000000000000000  2.00000000000000000000  0.00000000000000000000
28.00000000000000000000  0.00000000000000000000  0.00000000000000000000
29.00000000000000000000  0.00000000000000000000  0.00000000000000000000
30.00000000000000000000  0.00000000000000000000  0.00000000000000000000
28.00000000000000000000  1.00000000000000000000  0.00000000000000000000
29.00000000000000000000  1.00000000000000000000  0.00000000000000000000
30.00000000000000000000  1.00000000000000000000  0.00000000000000000000
28.00000000000000000000  2.00000000000000000000  0.00000000000000000000
29.00000000000000000000  2.00000000000000000000  0.00000000000000000000
30.00000000000000000000  2.00000000000000000000  0.00000000000000000000
30.00000000000000000000  0.00000000000000000000  0.00000000000000000000
31.00000000000000000000  0.00000000000000000000  0.00000000000000000000
[...]
POINT_DATA 1350
SCALARS  H  double
LOOKUP_TABLE default
      7.533353128938 
      7.533353169400 
      7.533353245374 
      7.533353107148 
      7.533353147610 
      7.533353223584 
      7.533353085358 
      7.533353125820 
      7.533353201794 
      7.535543644590 
      7.557143863308 
      7.577794576453 
      7.535544132887 
      7.557145230414 
      7.577795868861 
      7.535543940266 
      7.557144860977 
      7.577795737672 
      7.579005154840 
      7.610375889858 
      7.647179730868 
      7.579006550251 
      7.610381166205 
      7.647181942678 
      7.579006291961 
      7.610379604709 
      7.647181064684 
      7.647977128345 
      7.664982491873 
      7.686609336834 
      7.647978319641 
      7.664983706472 
      7.686610240025 
      7.647977934780 
      7.664983581199 
      7.686609443287 
      7.693182391959 
      7.693283200190 
      7.693383972908 
      7.693182720146 
      7.693283528377 
      7.693384301095 
      7.693183048334 
      7.693283856565 
      7.693384629283 
      7.693388384819 
      7.693456092058 
      7.693523763784 
      7.693388701615 
      7.693456408855 
      7.693524080581 
      7.693389018411 
      7.693456725651 
      7.693524397377 
      7.686850255794 
      7.665528663355 
      7.648936555532 
      7.686850795512 
      7.665530302356 
      7.648939253598 
      7.686852450165 
      7.665530668291 
      7.648939472074 
      7.648534798910 
      7.610799042799 
      7.583652766370 
      7.648539425866 
      7.610808803530 
      7.583658533670 
      7.648538919968 
      7.610805714392 
      7.583657179455 
      7.583656773904 
      7.560037715735 
      7.528854897804 
      7.583662553511 
      7.560046537530 
      7.528854410981 
      7.583661476993 
      7.560043597402 
      7.528854606389 
      7.528250131435 
      7.528254428941 
      7.528258761960 
      7.528250203963 
      7.528254501469 
      7.528258834488 
      7.528250276491 
      7.528254573997 
      7.528258907016 
      7.528258934806 
      7.528264566049 
      7.528270232806 
      7.528259007352 
      7.528264638595 
      7.528270305352 
      7.528259079898 
      7.528264711141 
      7.528270377898 
      7.528872713834 
      7.560088252450 
      7.583690794689 
      7.528871617816 
      7.560095623288 
      7.583694692941 
      7.528873299913 
      7.560092944873 
      7.583694078549 
      7.583707954933 
      7.610889002745 
      7.648539374397 
      7.583712056760 
      7.610893447171 
      7.648540745622 
      7.583711316462 
      7.610892146172 
      7.648540070713 
      7.649051204263 
      7.665696045441 
      7.687016194534 
      7.649051792485 
      7.665694971522 
      7.687015579173 
      7.649051458126 
      7.665695380803 
      7.687015107857 
      7.693761381381 
      7.693761338659 
      7.693761260424 
      7.693760695844 
      7.693760653122 
      7.693760574886 
      7.693760010306 
      7.693759967584 
      7.693759889349 
      7.693761263902 
      7.693762513877 
      7.693763728339 
      7.693760578368 
      7.693761828343 
      7.693763042805 
      7.693759892834 
      7.693761142809 
      7.693762357270 
      7.687018479280 
      7.665699999163 
      7.649056449879 
      7.687017809108 
      7.665698514984 
      7.649056815522 
      7.687017303869 
      7.665698978318 
      7.649056437080 
      7.648544375570 
      7.610897397833 
      7.583720286074 
      7.648545820510 
      7.610897868288 
      7.583720856435 
      7.648544910340 
      7.610897685636 
      7.583721171987 
      7.583702882987 
      7.560106409369 
      7.528892688796 
      7.583703610189 
      7.560104209900 
      7.528891735562 
      7.583703993003 
      7.560104108858 
      7.528892998117 
      7.528286590534 
      7.528285707114 
      7.528284859208 
      7.528286276665 
      7.528285393245 
      7.528284545339 
      7.528285962796 
      7.528285079376 
      7.528284231470 
      7.528284875802 
      7.528284717300 
      7.528284594313 
      7.528284561900 
      7.528284403399 
      7.528284280411 
      7.528284247998 
      7.528284089497 
      7.528283966509 
      7.528889324169 
      7.560105270951 
      7.583709144147 
      7.528890389728 
      7.560104325940 
      7.583702436805 
      7.528887586668 
      7.560103440821 
      7.583703586525 
      7.583726186843 
      7.610905022726 
      7.648548207529 
      7.583719729508 
      7.610897163312 
      7.648545704513 
      7.583721072390 
      7.610899513473 
      7.648545795992 
      7.649059061509 
      7.665699585734 
      7.687015157353 
      7.649057561865 
      7.665698340778 
      7.687014715484 
      7.649057382980 
      7.665698323120 
      7.687014526674 
      7.693758189986 
      7.693758123070 
      7.693758020641 
      7.693758150803 
      7.693758083887 
      7.693757981458 
      7.693758111621 
      7.693758044705 
      7.693757942276 
      7.693758020614 
      7.693757959167 
      7.693757862207 
      7.693757981431 
      7.693757919985 
      7.693757823025 
      7.693757942249 
      7.693757880802 
      7.693757783843 
      7.687014728530 
      7.665698184098 
      7.649056801288 
      7.687014533775 
      7.665697846847 
      7.649056620591 
      7.687014532657 
      7.665697907847 
      7.649056641389 
      7.648545319179 
      7.610898589661 
      7.583720935984 
      7.648545016929 
      7.610898077396 
      7.583720649829 
      7.648545109170 
      7.610898252868 
      7.583720720025 
      7.583703730983 
      7.560104890233 
      7.528891531651 
      7.583703434349 
      7.560104519596 
      7.528891479539 
      7.583703492945 
      7.560104646777 
      7.528891495792 
      7.528285341592 
      7.528284966058 
      7.528284626038 
      7.528285337685 
      7.528284962151 
      7.528284622131 
      7.528285333778 
      7.528284958244 
      7.528284618224 
      7.528284626141 
      7.528284336783 
      7.528284082938 
      7.528284622234 
      7.528284332876 
      7.528284079031 
      7.528284618327 
      7.528284328969 
      7.528284075124 
      7.528890130662 
      7.560102472326 
      7.583700912112 
      7.528890091137 
      7.560102102197 
      7.583700622818 
      7.528890102022 
      7.560102228875 
      7.583700680592 
      7.583717911137 
      7.610895082611 
      7.648540688461 
      7.583717631718 
      7.610894578864 
      7.648540410580 
      7.583717700097 
      7.610894748937 
      7.648540495814 
      7.649047697777 
      7.665692167715 
      7.687018665115 
      7.649047528209 
      7.665691847834 
      7.687018496426 
      7.649047547858 
      7.665691904701 
      7.687018490826 
      7.693770714049 
      7.693770244347 
      7.693769739132 
      7.693770678750 
      7.693770209049 
      7.693769703834 
      7.693770643452 
      7.693770173751 
      7.693769668536 
      7.693769738985 
      7.693769265942 
      7.693768757386 
      7.693769703687 
      7.693769230644 
      7.693768722088 
      7.693769668389 
      7.693769195346 
      7.693768686790 
      7.687016869379 
      7.665689717640 
      7.649044448822 
      7.687016602011 
      7.665688776777 
      7.649043333369 
      7.687016431720 
      7.665688780456 
      7.649043210849 
      7.648537952732 
      7.610893486498 
      7.583710603278 
      7.648536178373 
      7.610888840195 
      7.583706680321 
      7.648536155773 
      7.610890232382 
      7.583708058266 
      7.583694133503 
      7.560087553274 
      7.528862819616 
      7.583689375066 
      7.560091579902 
      7.528865783596 
      7.583691314390 
      7.560089517885 
      7.528866100970 
      7.528263068979 
      7.528257993362 
      7.528252953258 
      7.528263574208 
      7.528258498591 
      7.528253458487 
      7.528264079437 
      7.528259003820 
      7.528253963716 
      7.528252546097 
      7.528247975889 
      7.528243441195 
      7.528253046793 
      7.528248476585 
      7.528243941891 
      7.528253547489 
      7.528248977281 
      7.528244442586 
      7.528845762855 
      7.560038328170 
      7.583662209009 
      7.528849151445 
      7.560042232680 
      7.583657335928 
      7.528848053075 
      7.560040423956 
      7.583659059747 
      7.583657544649 
      7.610808233738 
      7.648537603580 
      7.583653257288 
      7.610803320719 
      7.648535686959 
      7.583654503518 
      7.610804853849 
      7.648535716772 
      7.648933179842 
      7.665525784540 
      7.686854332868 
      7.648932038959 
      7.665524874104 
      7.686854139350 
      7.648931867488 
      7.665524850252 
      7.686853939106 
      7.693536818978 
      7.693469251177 
      7.693401647864 
      7.693536786537 
      7.693469218736 
      7.693401615422 
      7.693536754095 
      7.693469186295 
      7.693401582981 
      7.693397159339 
      7.693297792529 
      7.693198390205 
      7.693397126021 
      7.693297759210 
      7.693198356887 
      7.693397092703 
      7.693297725892 
      7.693198323569 
      7.686615860819 
      7.664979400304 
      7.647970856805 
      7.686615730011 
      7.664979113974 
      7.647970698575 
      7.686615711970 
      7.664979163619 
      7.647970713027 
      7.647178735626 
      7.610377814228 
      7.579004128943 
      7.647178515514 
      7.610377319863 
      7.579003922642 
      7.647178573643 
      7.610377486925 
      7.579003964671 
      7.577793655850 
      7.557143093424 
      7.535541441188 
      7.577793474664 
      7.557142944602 
      7.535541373245 
      7.577793501512 
      7.557142987230 
      7.535541400217 
      7.533350593884 
      7.533350540313 
      7.533350522256 
      7.533350594497 
      7.533350540927 
      7.533350522869 
      7.533350595110 
      7.533350541540 
      7.533350523483 
      7.533353085358 
      7.533353095510 
      7.533353141175 
      7.533353050298 
      7.533353060450 
      7.533353106115 
      7.533353015238 
      7.533353025390 
      7.533353071055 
      7.535543837326 
      7.557144829500 
      7.577795543255 
      7.535543836370 
      7.557144934326 
      7.577795580847 
      7.535543846305 
      7.557145052863 
      7.577796400205 
      7.579006042483 
      7.610379563161 
      7.647180968268 
      7.579006172066 
      7.610379922437 
      7.647180895181 
      7.579006482722 
      7.610381683180 
      7.647179597143 
      7.647978304984 
      7.664984065885 
      7.686608981743 
      7.647977740226 
      7.664983381097 
      7.686608503998 
      7.647976634950 
      7.664982792123 
      7.686606223037 
      7.693177839565 
      7.693281598905 
      7.693385322731 
      7.693178901402 
      7.693282660742 
      7.693386384568 
      7.693179963239 
      7.693283722579 
      7.693387446405 
      7.693390012782 
      7.693458886028 
      7.693527723761 
      7.693391050627 
      7.693459923873 
      7.693528761607 
      7.693392088472 
      7.693460961719 
      7.693529799452 
      7.686851287342 
      7.665529233800 
      7.648938883857 
      7.686853118284 
      7.665531100399 
      7.648940595435 
      7.686855032569 
      7.665532666500 
      7.648943020928 
      7.648538956852 
      7.610805669519 
      7.583656655759 
      7.648539655179 
      7.610806076288 
      7.583657334957 
      7.648544803089 
      7.610808137444 
      7.583659882779 
      7.583660715485 
      7.560043704163 
      7.528854530158 
      7.583661322907 
      7.560044398353 
      7.528854560932 
      7.583663574919 
      7.560045481946 
      7.528854726977 
      7.528250285230 
      7.528254581666 
      7.528258913615 
      7.528250469452 
      7.528254765888 
      7.528259097838 
      7.528250653675 
      7.528254950111 
      7.528259282060 
      7.528259071603 
      7.528264779625 
      7.528270523162 
      7.528259256028 
      7.528264964050 
      7.528270707587 
      7.528259440453 
      7.528265148475 
      7.528270892012 
      7.528873371594 
      7.560093049369 
      7.583693431565 
      7.528874722118 
      7.560093333744 
      7.583694362701 
      7.528874450960 
      7.560094415452 
      7.583695735383 
      7.583710718054 
      7.610891966538 
      7.648540114511 
      7.583711074667 
      7.610891778388 
      7.648540201498 
      7.583712549082 
      7.610894233343 
      7.648540822865 
      7.649052596872 
      7.665695453938 
      7.687014470912 
      7.649052089692 
      7.665694884376 
      7.687013440485 
      7.649051192269 
      7.665693407890 
      7.687011254720 
      7.693758587686 
      7.693759258047 
      7.693759892896 
      7.693757260008 
      7.693757930369 
      7.693758565218 
      7.693755932330 
      7.693756602691 
      7.693757237540 
      7.693759892601 
      7.693760394465 
      7.693760860816 
      7.693758564923 
      7.693759066787 
      7.693759533138 
      7.693757237245 
      7.693757739109 
      7.693758205459 
      7.687016688845 
      7.665699127615 
      7.649057710955 
      7.687015634888 
      7.665698476921 
      7.649057011501 
      7.687013388427 
      7.665696891243 
      7.649055915257 
      7.648545385164 
      7.610897765153 
      7.583720947516 
      7.648545397594 
      7.610897338782 
      7.583721229782 
      7.648545337243 
      7.610898197563 
      7.583721581226 
      7.583703776216 
      7.560103923566 
      7.528894200957 
      7.583703791550 
      7.560104510753 
      7.528893781411 
      7.583705555367 
      7.560100575992 
      7.528896899213 
      7.528289644047 
      7.528286827310 
      7.528284046086 
      7.528288578207 
      7.528285761470 
      7.528282980246 
      7.528287512367 
      7.528284695630 
      7.528281914407 
      7.528284132649 
      7.528282592475 
      7.528281087814 
      7.528283063980 
      7.528281523805 
      7.528280019144 
      7.528281995310 
      7.528280455136 
      7.528278950474 
      7.528887197842 
      7.560104431939 
      7.583703782240 
      7.528886625464 
      7.560105872290 
      7.583703645972 
      7.528887031665 
      7.560099418264 
      7.583701460670 
      7.583721401781 
      7.610899830132 
      7.648546046202 
      7.583720910278 
      7.610899307042 
      7.648545628783 
      7.583716858824 
      7.610897344121 
      7.648543769286 
      7.649057521703 
      7.665698731518 
      7.687015168020 
      7.649057118821 
      7.665698422377 
      7.687014980479 
      7.649056288085 
      7.665698136738 
      7.687014726375 
      7.693758091550 
      7.693758034676 
      7.693757942289 
      7.693757991207 
      7.693757934333 
      7.693757841946 
      7.693757890864 
      7.693757833990 
      7.693757741603 
      7.693757942272 
      7.693757856423 
      7.693757735060 
      7.693757841930 
      7.693757756080 
      7.693757634718 
      7.693757741587 
      7.693757655737 
      7.693757534375 
      7.687014550717 
      7.665697917866 
      7.649056622265 
      7.687014484394 
      7.665697857181 
      7.649056576673 
      7.687014407713 
      7.665697793126 
      7.649056525311 
      7.648545065540 
      7.610898231052 
      7.583720739799 
      7.648545015924 
      7.610898195916 
      7.583720696225 
      7.648544962317 
      7.610898159152 
      7.583720646330 
      7.583703528321 
      7.560104628154 
      7.528891487355 
      7.583703481086 
      7.560104601208 
      7.528891476146 
      7.583703430311 
      7.560104576701 
      7.528891464507 
      7.528285325942 
      7.528284954359 
      7.528284618289 
      7.528285317905 
      7.528284946322 
      7.528284610252 
      7.528285309869 
      7.528284938286 
      7.528284602216 
      7.528284618264 
      7.528284325483 
      7.528284068215 
      7.528284610227 
      7.528284317446 
      7.528284060178 
      7.528284602191 
      7.528284309410 
      7.528284052142 
      7.528890095686 
      7.560102212851 
      7.583700715757 
      7.528890085869 
      7.560102184987 
      7.583700670291 
      7.528890074750 
      7.560102159663 
      7.583700617262 
      7.583717721479 
      7.610894733641 
      7.648540459127 
      7.583717678069 
      7.610894698402 
      7.648540406207 
      7.583717626819 
      7.610894657480 
      7.648540345489 
      7.649047535365 
      7.665691920135 
      7.687018508595 
      7.649047488789 
      7.665691858311 
      7.687018440999 
      7.649047433894 
      7.665691791325 
      7.687018361097 
      7.693770593529 
      7.693770148770 
      7.693769668497 
      7.693770495928 
      7.693770051168 
      7.693769570896 
      7.693770398327 
      7.693769953567 
      7.693769473295 
      7.693769668387 
      7.693769203740 
      7.693768703580 
      7.693769570785 
      7.693769106139 
      7.693768605979 
      7.693769473184 
      7.693769008538 
      7.693768508377 
      7.687016932402 
      7.665689109238 
      7.649043379385 
      7.687016765596 
      7.665688872748 
      7.649043169158 
      7.687016558597 
      7.665688660403 
      7.649042418259 
      7.648536292040 
      7.610890537543 
      7.583708331923 
      7.648535877821 
      7.610890354211 
      7.583708709717 
      7.648534687576 
      7.610888533239 
      7.583706380883 
      7.583691814720 
      7.560089805895 
      7.528867191658 
      7.583691830834 
      7.560090640682 
      7.528870452215 
      7.583690748058 
      7.560088594564 
      7.528873239848 
      7.528265392282 
      7.528259596097 
      7.528253835426 
      7.528266455281 
      7.528260659096 
      7.528254898425 
      7.528267518280 
      7.528261722096 
      7.528255961424 
      7.528253663362 
      7.528249336633 
      7.528245045417 
      7.528254720846 
      7.528250394117 
      7.528246102901 
      7.528255778330 
      7.528251451601 
      7.528247160385 
      7.528848653220 
      7.560040688893 
      7.583659454583 
      7.528850094148 
      7.560041845834 
      7.583658959582 
      7.528854114631 
      7.560039525883 
      7.583658311723 
      7.583654915912 
      7.610805132843 
      7.648535903099 
      7.583654948813 
      7.610804868196 
      7.648535629113 
      7.583652739614 
      7.610803223243 
      7.648534228659 
      7.648932023253 
      7.665525187877 
      7.686854440870 
      7.648931753931 
      7.665524962570 
      7.686854310486 
      7.648931062591 
      7.665524763747 
      7.686854100194 
      7.693536762596 
      7.693469189596 
      7.693401581082 
      7.693536673189 
      7.693469100189 
      7.693401491676 
      7.693536583783 
      7.693469010783 
      7.693401402269 
      7.693397097953 
      7.693297696467 
      7.693198259467 
      7.693397007665 
      7.693297606178 
      7.693198169178 
      7.693396917376 
      7.693297515889 
      7.693198078889 
      7.686615726819 
      7.664979179342 
      7.647970706955 
      7.686615663754 
      7.664979123088 
      7.647970662416 
      7.686615589574 
      7.664979063060 
      7.647970611297 
      7.647178546614 
      7.610377473326 
      7.579003977380 
      7.647178496650 
      7.610377436389 
      7.579003945028 
      7.647178439498 
      7.610377397873 
      7.579003907114 
      7.577793520843 
      7.557142980771 
      7.535541399914 
      7.577793488345 
      7.557142971460 
      7.535541398474 
      7.577793449907 
      7.557142963796 
      7.535541398324 
      7.533350596626 
      7.533350542298 
      7.533350523483 
      7.533350597708 
      7.533350543380 
      7.533350524565 
      7.533350598790 
      7.533350544462 
      7.533350525647 
      7.533353015239 
      7.533353020639 
      7.533353061553 
      7.533353001969 
      7.533353007369 
      7.533353048283 