# vtk DataFile Version 2.0
NDG-FEM NonhydrostaticStandingWave2d Simulation
ASCII
DATASET UNSTRUCTURED_GRID

POINTS 480 double
0.00000000000000000000  0.00000000000000000000  0.00000000000000000000
1.00000000000000000000  0.00000000000000000000  0.00000000000000000000
2.00000000000000000000  0.00000000000000000000  0.00000000000000000000
0.00000000000000000000  1.00000000000000000000  0.00000000000000000000
1.00000000000000000000  1.00000000000000000000  0.00000000000000000000
0.00000000000000000000  2.00000000000000000000  0.00000000000000000000
2.00000000000000000000  0.00000000000000000000  0.00000000000000000000
3.00000000000000000000  0.00000000000000000000  0.00000000000000000000
4.00000000000000000000  0.00000000000000000000  0.00000000000000000000
2.00000000000000000000  1.00000000000000000000  0.00000000000000000000
3.00000000000000000000  1.00000000000000000000  0.00000000000000000000
2.00000000000000000000  2.00000000000000000000  0.00000000000000000000
4.00000000000000000000  0.00000000000000000000  0.00000000000000000000
5.00000000000000000000  0.00000000000000000000  0.00000000000000000000
6.00000000000000000000  0.00000000000000000000  0.00000000000000000000
4.00000000000000000000  1.00000000000000000000  0.00000000000000000000
5.00000000000000000000  1.00000000000000000000  0.00000000000000000000
4.00000000000000000000  2.00000000000000000000  0.00000000000000000000
6.00000000000000000000  0.00000000000000000000  0.00000000000000000000
7.00000000000000000000  0.00000000000000000000  0.00000000000000000000
8.00000000000000000000  0.00000000000000000000  0.00000000000000000000
6.00000000000000000000  1.00000000000000000000  0.00000000000000000000
7.00000000000000000000  1.00000000000000000000  0.00000000000000000000
6.00000000000000000000  2.00000000000000000000  0.00000000000000000000
8.00000000000000000000  0.00000000000000000000  0.00000000000000000000
9.00000000000000000000  0.00000000000000000000  0.00000000000000000000
10.00000000000000000000  0.00000000000000000000  0.00000000000000000000
8.00000000000000000000  1.00000000000000000000  0.00000000000000000000
9.00000000000000000000  1.00000000000000000000  0.00000000000000000000
8.00000000000000000000  2.00000000000000000000  0.00000000000000000000
10.00000000000000000000  0.00000000000000000000  0.00000000000000000000
11.00000000000000000000  0.00000000000000000000  0.00000000000000000000
12.00000000000000000000  0.00000000000000000000  0.00000000000000000000
10.00000000000000000000  1.00000000000000000000  0.00000000000000000000
11.00000000000000000000  1.00000000000000000000  0.00000000000000000000
10.00000000000000000000  2.00000000000000000000  0.00000000000000000000
12.00000000000000000000  0.00000000000000000000  0.00000000000000000000
13.00000000000000000000  0.00000000000000000000  0.00000000000000000000
14.00000000000000000000  0.00000000000000000000  0.00000000000000000000
12.00000000000000000000  1.00000000000000000000  0.00000000000000000000
13.00000000000000000000  1.00000000000000000000  0.00000000000000000000
12.00000000000000000000  2.00000000000000000000  0.00000000000000000000
14.00000000000000000000  0.00000000000000000000  0.00000000000000000000
15.00000000000000000000  0.00000000000000000000  0.00000000000000000000
16.00000000000000000000  0.00000000000000000000  0.00000000000000000000
14.00000000000000000000  1.00000000000000000000  0.00000000000000000000
15.00000000000000000000  1.00000000000000000000  0.00000000000000000000
14.00000000000000000000  2.00000000000000000000  0.00000000000000000000
16.00000000000000000000  0.00000000000000000000  0.00000000000000000000
17.00000000000000000000  0.00000000000000000000  0.00000000000000000000
18.00000000000000000000  0.00000000000000000000  0.00000000000000000000
16.00000000000000000000  1.00000000000000000000  0.00000000000000000000
17.00000000000000000000  1.00000000000000000000  0.00000000000000000000
16.00000000000000000000  2.00000000000000000000  0.00000000000000000000
18.00000000000000000000  0.00000000000000000000  0.00000000000000000000
19.00000000000000000000  0.00000000000000000000  0.00000000000000000000
20.00000000000000000000  0.00000000000000000000  0.00000000000000000000
18.00000000000000000000  1.00000000000000000000  0.00000000000000000000
19.00000000000000000000  1.00000000000000000000  0.00000000000000000000
18.00000000000000000000  2.00000000000000000000  0.00000000000000000000
2.00000000000000000000  0.00000000000000000000  0.00000000000000000000
2.00000000000000000000  1.00000000000000000000  0.00000000000000000000
2.00000000000000000000  2.00000000000000000000  0.00000000000000000000
1.00000000000000000000  1.00000000000000000000  0.00000000000000000000
1.00000000000000000000  2.00000000000000000000  0.00000000000000000000
0.00000000000000000000  2.00000000000000000000  0.00000000000000000000
4.00000000000000000000  0.00000000000000000000  0.00000000000000000000
4.00000000000000000000  1.00000000000000000000  0.00000000000000000000
4.00000000000000000000  2.00000000000000000000  0.00000000000000000000
3.00000000000000000000  1.00000000000000000000  0.00000000000000000000
3.00000000000000000000  2.00000000000000000000  0.00000000000000000000
2.00000000000000000000  2.00000000000000000000  0.00000000000000000000
6.00000000000000000000  0.00000000000000000000  0.00000000000000000000
6.00000000000000000000  1.00000000000000000000  0.00000000000000000000
6.00000000000000000000  2.00000000000000000000  0.00000000000000000000
5.00000000000000000000  1.00000000000000000000  0.00000000000000000000
5.00000000000000000000  2.00000000000000000000  0.00000000000000000000
4.00000000000000000000  2.00000000000000000000  0.00000000000000000000
8.00000000000000000000  0.00000000000000000000  0.00000000000000000000
8.00000000000000000000  1.00000000000000000000  0.00000000000000000000
8.00000000000000000000  2.00000000000000000000  0.00000000000000000000
7.00000000000000000000  1.00000000000000000000  0.00000000000000000000
7.00000000000000000000  2.00000000000000000000  0.00000000000000000000
6.00000000000000000000  2.00000000000000000000  0.00000000000000000000
10.00000000000000000000  0.00000000000000000000  0.00000000000000000000
10.00000000000000000000  1.00000000000000000000  0.00000000000000000000
10.00000000000000000000  2.00000000000000000000  0.00000000000000000000
9.00000000000000000000  1.00000000000000000000  0.00000000000000000000
9.00000000000000000000  2.00000000000000000000  0.00000000000000000000
8.00000000000000000000  2.00000000000000000000  0.00000000000000000000
12.00000000000000000000  0.00000000000000000000  0.00000000000000000000
12.00000000000000000000  1.00000000000000000000  0.00000000000000000000
12.00000000000000000000  2.00000000000000000000  0.00000000000000000000
11.00000000000000000000  1.00000000000000000000  0.00000000000000000000
11.00000000000000000000  2.00000000000000000000  0.00000000000000000000
10.00000000000000000000  2.00000000000000000000  0.00000000000000000000
14.00000000000000000000  0.00000000000000000000  0.00000000000000000000
14.00000000000000000000  1.00000000000000000000  0.00000000000000000000
14.00000000000000000000  2.00000000000000000000  0.00000000000000000000
13.00000000000000000000  1.00000000000000000000  0.00000000000000000000
13.00000000000000000000  2.00000000000000000000  0.00000000000000000000
12.00000000000000000000  2.00000000000000000000  0.00000000000000000000
16.00000000000000000000  0.00000000000000000000  0.00000000000000000000
16.00000000000000000000  1.00000000000000000000  0.00000000000000000000
16.00000000000000000000  2.00000000000000000000  0.00000000000000000000
15.00000000000000000000  1.00000000000000000000  0.00000000000000000000
15.00000000000000000000  2.00000000000000000000  0.00000000000000000000
14.00000000000000000000  2.00000000000000000000  0.00000000000000000000
18.00000000000000000000  0.00000000000000000000  0.00000000000000000000
18.00000000000000000000  1.00000000000000000000  0.00000000000000000000
18.00000000000000000000  2.00000000000000000000  0.00000000000000000000
17.00000000000000000000  1.00000000000000000000  0.00000000000000000000
17.00000000000000000000  2.00000000000000000000  0.00000000000000000000
16.00000000000000000000  2.00000000000000000000  0.00000000000000000000
20.00000000000000000000  0.00000000000000000000  0.00000000000000000000
20.00000000000000000000  1.00000000000000000000  0.00000000000000000000
20.00000000000000000000  2.00000000000000000000  0.00000000000000000000
19.00000000000000000000  1.00000000000000000000  0.00000000000000000000
19.00000000000000000000  2.00000000000000000000  0.00000000000000000000
18.00000000000000000000  2.00000000000000000000  0.00000000000000000000
0.00000000000000000000  2.00000000000000000000  0.00000000000000000000
1.00000000000000000000  2.00000000000000000000  0.00000000000000000000
2.00000000000000000000  2.00000000000000000000  0.00000000000000000000
0.00000000000000000000  3.00000000000000000000  0.00000000000000000000
1.00000000000000000000  3.00000000000000000000  0.00000000000000000000
0.00000000000000000000  4.00000000000000000000  0.00000000000000000000
2.00000000000000000000  2.00000000000000000000  0.00000000000000000000
3.00000000000000000000  2.00000000000000000000  0.00000000000000000000
4.00000000000000000000  2.00000000000000000000  0.00000000000000000000
2.00000000000000000000  3.00000000000000000000  0.00000000000000000000
3.00000000000000000000  3.00000000000000000000  0.00000000000000000000
2.00000000000000000000  4.00000000000000000000  0.00000000000000000000
4.00000000000000000000  2.00000000000000000000  0.00000000000000000000
5.00000000000000000000  2.00000000000000000000  0.00000000000000000000
6.00000000000000000000  2.00000000000000000000  0.00000000000000000000
4.00000000000000000000  3.00000000000000000000  0.00000000000000000000
5.00000000000000000000  3.00000000000000000000  0.00000000000000000000
4.00000000000000000000  4.00000000000000000000  0.00000000000000000000
[...]
POINT_DATA 480
SCALARS  H  double
LOOKUP_TABLE default
      7.517784859389 
      7.522321240303 
      7.535772026009 
      7.517783019085 
      7.522323142004 
      7.517752364256 
      7.535666149501 
      7.556585557100 
      7.582856105936 
      7.535706833920 
      7.556564846193 
      7.535704405517 
      7.582694834967 
      7.612019666663 
      7.641083971364 
      7.582809392391 
      7.611969883430 
      7.582798728405 
      7.640923351158 
      7.667450700508 
      7.688211688957 
      7.641070687588 
      7.667391076254 
      7.641053882021 
      7.688111338168 
      7.701701873312 
      7.706238329784 
      7.688233938016 
      7.701657608196 
      7.688217370213 
      7.706232541416 
      7.701682529472 
      7.688262125163 
      7.706280501948 
      7.701672163175 
      7.706269229699 
      7.688366886447 
      7.667399373730 
      7.641151950646 
      7.688310401749 
      7.667429330457 
      7.688309341992 
      7.641324450552 
      7.611957492460 
      7.582906086243 
      7.641187245438 
      7.612015298399 
      7.641195178634 
      7.583073257015 
      7.556540140723 
      7.535779324081 
      7.582920106713 
      7.556598707160 
      7.582933754550 
      7.535878032486 
      7.522302631773 
      7.517816760500 
      7.535773523397 
      7.522339580758 
      7.535787269580 
      7.535725851422 
      7.535761106596 
      7.535773619386 
      7.522327943381 
      7.522325392200 
      7.517754282241 
      7.582784735370 
      7.582895613163 
      7.582904768347 
      7.556582109252 
      7.556579454500 
      7.535655378536 
      7.641012268518 
      7.641157780681 
      7.641157165587 
      7.611994998901 
      7.612000187284 
      7.582723165840 
      7.688166763892 
      7.688288764826 
      7.688276858269 
      7.667414389153 
      7.667426390865 
      7.640980755770 
      7.706230277554 
      7.706275985100 
      7.706262653174 
      7.701668609017 
      7.701683152688 
      7.688178715600 
      7.688302927812 
      7.688247714482 
      7.688239542111 
      7.701667478883 
      7.701678832993 
      7.706280958171 
      7.641225905509 
      7.641095623189 
      7.641090713371 
      7.667412740472 
      7.667413959310 
      7.688364062098 
      7.582980018645 
      7.582835078516 
      7.582834988556 
      7.611994509112 
      7.611983666894 
      7.641273928712 
      7.535824899226 
      7.535724698857 
      7.535728273437 
      7.556581648662 
      7.556564562131 
      7.583006645346 
      7.517806949524 
      7.517771670061 
      7.517774887681 
      7.522332756127 
      7.522318731066 
      7.535828418178 
      7.517769277615 
      7.522318076097 
      7.535809345371 
      7.517775606248 
      7.522321530462 
      7.517754607080 
      7.535710324430 
      7.556559125826 
      7.582979715984 
      7.535721514923 
      7.556566112088 
      7.535714659772 
      7.582806667604 
      7.611973675942 
      7.641245692307 
      7.582826780899 
      7.611981794838 
      7.582812639503 
      7.641060422611 
      7.667403846956 
      7.688344984300 
      7.641081658100 
      7.667409814323 
      7.641066980855 
      7.688219738413 
      7.701673690801 
      7.706278076153 
      7.688233539398 
      7.701675307305 
      7.688224446561 
      7.706263739301 
      7.701686480366 
      7.688195563692 
      7.706267531173 
      7.701680906026 
      7.706267852810 
      7.688297340780 
      7.667435142220 
      7.641009946910 
      7.688289470760 
      7.667426738724 
      7.688299224154 
      7.641188741137 
      7.612009068113 
      7.582752930720 
      7.641169110800 
      7.612002617417 
      7.641181836488 
      7.582935436143 
      7.556584277691 
      7.535675884366 
      7.582911962688 
      7.556582862180 
      7.582922282733 
      7.535794213106 
      7.522326344425 
      7.517764031838 
      7.535773877193 
      7.522327580624 
      7.535779063023 
      7.535768852241 
      7.535773872765 
      7.535785152384 
      7.522327450054 
      7.522325716473 
      7.517756793396 
      7.582907533136 
      7.582912181681 
      7.582922012278 
      7.556583136898 
      7.556583313651 
      7.535665376894 
      7.641167388324 
      7.641169784126 
      7.641175372662 
      7.612003650541 
      7.612005718709 
      7.582736755847 
      7.688290549979 
      7.688289993222 
      7.688288933049 
      7.667428027983 
      7.667431353270 
      7.640993595351 
      7.706268292607 
      7.706267700779 
      7.706262897370 
      7.701681645282 
      7.701684459140 
      7.688185304659 
      7.688234320416 
      7.688233074355 
      7.688227277210 
      7.701674835238 
      7.701675914184 
      7.706277788985 
      7.641082514681 
      7.641080992524 
      7.641073129685 
      7.667408958611 
      7.667408373668 
      7.688353646033 
      7.582827895247 
      7.582826333320 
      7.582819246809 
      7.611981192044 
      7.611978158786 
      7.641260243936 
      7.535724450180 
      7.535721355452 
      7.535718994075 
      7.556566165395 
      7.556561860823 
      7.582994508199 
      7.517761744427 
      7.517775724929 
      7.517769848409 
      7.522321877660 
      7.522317093160 
      7.535819761409 
      7.517769848409 
      7.522317093160 
      7.535819761409 
      7.517775724929 
      7.522321877660 
      7.517761744427 
      7.535718994075 
      7.556561860823 
      7.582994508199 
      7.535721355452 
      7.556566165395 
      7.535724450180 
      7.582819246809 
      7.611978158786 
      7.641260243936 
      7.582826333320 
      7.611981192044 
      7.582827895247 
      7.641073129685 
      7.667408373668 
      7.688353646033 
      7.641080992524 
      7.667408958611 
      7.641082514681 
      7.688227277210 
      7.701675914184 
      7.706277788985 
      7.688233074355 
      7.701674835238 
      7.688234320416 
      7.706262897370 
      7.701684459140 
      7.688185304659 
      7.706267700779 
      7.701681645282 
      7.706268292607 
      7.688288933049 
      7.667431353270 
      7.640993595351 
      7.688289993222 
      7.667428027983 
      7.688290549979 
      7.641175372662 
      7.612005718709 
      7.582736755847 
      7.641169784126 
      7.612003650541 
      7.641167388324 
      7.582922012278 
      7.556583313651 
      7.535665376894 
      7.582912181681 
      7.556583136898 
      7.582907533136 
      7.535785152384 
      7.522325716473 
      7.517756793396 
      7.535773872765 
      7.522327450054 
      7.535768852241 
      7.535779063023 
      7.535773877193 
      7.535794213106 
      7.522327580624 
      7.522326344425 
      7.517764031838 
      7.582922282733 
      7.582911962688 
      7.582935436143 
      7.556582862180 
      7.556584277691 
      7.535675884366 
      7.641181836488 
      7.641169110800 
      7.641188741137 
      7.612002617417 
      7.612009068113 
      7.582752930720 
      7.688299224154 
      7.688289470760 
      7.688297340780 
      7.667426738724 
      7.667435142220 
      7.641009946910 
      7.706267852810 
      7.706267531173 
      7.706263739301 
      7.701680906026 
      7.701686480366 
      7.688195563692 
      7.688224446561 
      7.688233539398 
      7.688219738413 
      7.701675307305 
      7.701673690801 
      7.706278076153 
      7.641066980855 
      7.641081658100 
      7.641060422611 
      7.667409814323 
      7.667403846956 
      7.688344984300 
      7.582812639503 
      7.582826780899 
      7.582806667604 
      7.611981794838 
      7.611973675942 
      7.641245692307 
      7.535714659772 
      7.535721514923 
      7.535710324430 
      7.556566112088 
      7.556559125826 
      7.582979715984 
      7.517754607080 
      7.517775606248 
      7.517769277615 
      7.522321530462 
      7.522318076097 
      7.535809345371 
      7.517774887681 
      7.522318731066 
      7.535828418178 
      7.517771670061 
      7.522332756127 
      7.517806949524 
      7.535728273437 
      7.556564562131 
      7.583006645346 
      7.535724698857 
      7.556581648662 
      7.535824899226 
      7.582834988556 
      7.611983666894 
      7.641273928712 
      7.582835078516 
      7.611994509112 
      7.582980018645 
      7.641090713371 
      7.667413959310 
      7.688364062098 
      7.641095623189 
      7.667412740472 
      7.641225905509 
      7.688239542111 
      7.701678832993 
      7.706280958171 
      7.688247714482 
      7.701667478883 
      7.688302927812 
      7.706262653174 
      7.701683152688 
      7.688178715600 
      7.706275985100 
      7.701668609017 
      7.706230277554 
      7.688276858269 
      7.667426390865 
      7.640980755770 
      7.688288764826 
      7.667414389153 
      7.688166763892 
      7.641157165587 
      7.612000187284 
      7.582723165840 
      7.641157780681 
      7.611994998901 
      7.641012268518 
      7.582904768347 
      7.556579454500 
      7.535655378536 
      7.582895613163 
      7.556582109252 
      7.582784735370 
      7.535773619386 
      7.522325392200 
      7.517754282241 
      7.535761106596 
      7.522327943381 
      7.535725851422 
      7.535787269580 
      7.535773523397 
      7.535878032486 
      7.522339580758 
      7.522302631773 
      7.517816760500 
      7.582933754550 
      7.582920106713 
      7.583073257015 
      7.556598707160 
      7.556540140723 
      7.535779324081 
      7.641195178634 
      7.641187245438 
      7.641324450552 
      7.612015298399 
      7.611957492460 
      7.582906086243 
      7.688309341992 
      7.688310401749 
      7.688366886447 
      7.667429330457 
      7.667399373730 
      7.641151950646 
      7.706269229699 
      7.706280501948 
      7.706232541416 
      7.701672163175 
      7.701682529472 
      7.688262125163 
      7.688217370213 
      7.688233938016 
      7.688111338168 
      7.701657608196 
      7.701701873312 
      7.706238329784 
      7.641053882021 
      7.641070687588 
      7.640923351158 
      7.667391076254 
      7.667450700508 
      7.688211688957 
      7.582798728405 
      7.582809392391 
      7.582694834967 
      7.611969883430 
      7.612019666663 
      7.641083971364 
      7.535704405517 
      7.535706833920 
      7.535666149501 
      7.556564846193 
      7.556585557100 
      7.582856105936 
      7.517752364256 
      7.517783019085 
      7.517784859389 
      7.522323142004 
      7.522321240303 
      7.535772026009 
SCALARS  HU  double
LOOKUP_TABLE default
      0.000130062474 
     -0.056853794133 
     -0.109913470344 
      0.000069346295 
     -0.056978611872 
      0.000205962837 
     -0.108880868526 
     -0.149129877836 
     -0.176937767653 
     -0.108814049929 
     -0.149355136629 
     -0.108678586247 
     -0.176076128176 
     -0.184295945996 
     -0.176404628494 
     -0.176035897697 
     -0.184513395843 
     -0.175950421202 
     -0.175927417206 
     -0.149052434256 
     -0.108572488649 
     -0.175935150873 
     -0.149184041080 
     -0.175937616419 
     -0.108653622708 
     -0.056975325622 
      0.000620507512 
     -0.108705827432 
     -0.056988458697 
     -0.108779346383 
      0.000049889767 
      0.056760310777 
      0.109628150408 
     -0.000048664373 
      0.056911144859 
     -0.000183555173 
      0.108731466580 
      0.148871875767 
      0.176880721861 
      0.108621623770 
      0.149147872879 
      0.108464855223 
      0.175988214241 
      0.184264747378 
      0.176585646350 
      0.175880369166 
      0.184530458946 
      0.175810963561 
      0.176091834303 
      0.149266025773 
      0.108757087703 
      0.176034897893 
      0.149417758131 
      0.176071092909 
      0.108858544874 
      0.057112847697 
     -0.000655045953 
      0.108893817779 
      0.057082624915 
      0.109027553985 
     -0.109191097467 
     -0.108929913008 
     -0.109074666304 
     -0.057166173775 
     -0.057125823169 
      0.000699830284 
     -0.176262904235 
     -0.176054295256 
     -0.176223401665 
     -0.149473210645 
     -0.149356488390 
     -0.108534172521 
     -0.175971727019 
     -0.175870931792 
     -0.176014257832 
     -0.184542070722 
     -0.184385481733 
     -0.176170848571 
     -0.108535600762 
     -0.108586586502 
     -0.108650497413 
     -0.149114006744 
     -0.148967243670 
     -0.176429748879 
      0.000224062909 
      0.000094248220 
      0.000100182211 
     -0.056852064275 
     -0.056775082558 
     -0.109334950859 
      0.108944060316 
      0.108743299023 
      0.108840764249 
      0.057063105445 
      0.057026666066 
     -0.000567920487 
      0.176160798498 
      0.175951512578 
      0.176117612265 
      0.149260548827 
      0.149122136843 
      0.108390138500 
      0.176135813232 
      0.176017503883 
      0.176175930030 
      0.184555280207 
      0.184374034889 
      0.176065070872 
      0.108752575807 
      0.108773726658 
      0.108848439360 
      0.149343682143 
      0.149182857925 
      0.176561208250 
     -0.000188735917 
     -0.000110331935 
     -0.000215788398 
      0.056920454681 
      0.056837674272 
      0.109613283983 
      0.000230856439 
     -0.056872964850 
     -0.109664302990 
      0.000115532110 
     -0.056887942530 
      0.000214198001 
     -0.108792130045 
     -0.149202713009 
     -0.176647253864 
     -0.108814931316 
     -0.149260500728 
     -0.108675287149 
     -0.176087870832 
     -0.184375104161 
     -0.176148365263 
     -0.176075005909 
     -0.184435989392 
     -0.175966373842 
     -0.176033936684 
     -0.149104112236 
     -0.108442191374 
     -0.176000483404 
     -0.149147557358 
     -0.175960428412 
     -0.108795949246 
     -0.056998052930 
      0.000569522230 
     -0.108757480426 
     -0.057007423787 
     -0.108800800087 
     -0.000100012407 
      0.056802649124 
      0.109383555274 
     -0.000083007960 
      0.056842329845 
     -0.000198342286 
      0.108613392392 
      0.148980534066 
      0.176522016813 
      0.108618077469 
      0.149044959706 
      0.108467061383 
      0.175958013708 
      0.184374428467 
      0.176274699254 
      0.175917158706 
      0.184440313664 
      0.175829193484 
      0.176166766480 
      0.149326102723 
      0.108607718302 
      0.176098566069 
      0.149370193779 
      0.176100523905 
      0.109041493065 
      0.057081192938 
     -0.000679120945 
      0.108955624725 
      0.057083631344 
      0.109049552591 
     -0.109062509166 
     -0.108960659866 
     -0.109048139074 
     -0.057088015597 
     -0.057090777682 
      0.000690168092 
     -0.176114607369 
     -0.176097331912 
     -0.176192826044 
     -0.149375052768 
     -0.149335771331 
     -0.108571996302 
     -0.175840045374 
     -0.175913602141 
     -0.175984222662 
     -0.184442869684 
     -0.184374665380 
     -0.176230835841 
     -0.108472248854 
     -0.108610988470 
     -0.108630322367 
     -0.149046242257 
     -0.148972391570 
     -0.176484086146 
      0.000199263527 
      0.000089725810 
      0.000102271653 
     -0.056841394881 
     -0.056788338824 
     -0.109368837130 
      0.108806052707 
      0.108760796443 
      0.108812100951 
      0.057010394115 
      0.057012017663 
     -0.000574545832 
      0.175973378663 
      0.175997711582 
      0.176057165946 
      0.149152086665 
      0.149113179200 
      0.108423153427 
      0.175980088876 
      0.176069051124 
      0.176110602562 
      0.184440643401 
      0.184372603804 
      0.176120675102 
      0.108690389871 
      0.108807200594 
      0.108802603514 
      0.149260934212 
      0.149190617315 
      0.176621476984 
     -0.000212419126 
     -0.000114372807 
     -0.000228657086 
      0.056888088612 
      0.056841902289 
      0.109645440191 
      0.000228657086 
     -0.056841902289 
     -0.109645440191 
      0.000114372807 
     -0.056888088612 
      0.000212419126 
     -0.108802603514 
     -0.149190617315 
     -0.176621476984 
     -0.108807200594 
     -0.149260934212 
     -0.108690389871 
     -0.176110602562 
     -0.184372603804 
     -0.176120675102 
     -0.176069051124 
     -0.184440643401 
     -0.175980088876 
     -0.176057165946 
     -0.149113179200 
     -0.108423153427 
     -0.175997711582 
     -0.149152086665 
     -0.175973378663 
     -0.108812100951 
     -0.057012017663 
      0.000574545832 
     -0.108760796443 
     -0.057010394115 
     -0.108806052707 
     -0.000102271653 
      0.056788338824 
      0.109368837130 
     -0.000089725810 
      0.056841394881 
     -0.000199263527 
      0.108630322367 
      0.148972391570 
      0.176484086146 
      0.108610988470 
      0.149046242257 
      0.108472248854 
      0.175984222662 
      0.184374665380 
      0.176230835841 
      0.175913602141 
      0.184442869684 
      0.175840045374 
      0.176192826044 
      0.149335771331 
      0.108571996302 
      0.176097331912 
      0.149375052768 
      0.176114607369 
      0.109048139074 
      0.057090777682 
     -0.000690168092 
      0.108960659866 
      0.057088015597 
      0.109062509166 
     -0.109049552591 
     -0.108955624725 
     -0.109041493065 
     -0.057083631344 
     -0.057081192938 
      0.000679120945 
     -0.176100523905 
     -0.176098566069 
     -0.176166766480 
     -0.149370193779 
     -0.149326102723 
     -0.108607718302 
     -0.175829193484 
     -0.175917158706 
     -0.175958013708 
     -0.184440313664 
     -0.184374428467 
     -0.176274699254 
     -0.108467061383 
     -0.108618077469 
     -0.108613392392 
     -0.149044959706 
     -0.148980534066 
     -0.176522016813 
      0.000198342286 
      0.000083007960 
      0.000100012407 
     -0.056842329845 
     -0.056802649124 
     -0.109383555274 
      0.108800800087 
      0.108757480426 
      0.108795949246 
      0.057007423787 
      0.056998052930 
     -0.000569522230 
      0.175960428412 
      0.176000483404 
      0.176033936684 
      0.149147557358 
      0.149104112236 
      0.108442191374 
      0.175966373842 
      0.176075005909 
      0.176087870832 
      0.184435989392 
      0.184375104161 
      0.176148365263 
      0.108675287149 
      0.108814931316 
      0.108792130045 
      0.149260500728 
      0.149202713009 
      0.176647253864 
     -0.000214198001 
     -0.000115532110 
     -0.000230856439 
      0.056887942530 
      0.056872964850 
      0.109664302990 
      0.000215788398 
     -0.056837674272 
     -0.109613283983 
      0.000110331935 
     -0.056920454681 
      0.000188735917 
     -0.108848439360 
     -0.149182857925 
     -0.176561208250 
     -0.108773726658 
     -0.149343682143 
     -0.108752575807 
     -0.176175930030 
     -0.184374034889 
     -0.176065070872 
     -0.176017503883 
     -0.184555280207 
     -0.176135813232 
     -0.176117612265 
     -0.149122136843 
     -0.108390138500 
     -0.175951512578 
     -0.149260548827 
     -0.176160798498 
     -0.108840764249 
     -0.057026666066 
      0.000567920487 
     -0.108743299023 
     -0.057063105445 
     -0.108944060316 
     -0.000100182211 
      0.056775082558 
      0.109334950859 
     -0.000094248220 
      0.056852064275 
     -0.000224062909 
      0.108650497413 
      0.148967243670 
      0.176429748879 
      0.108586586502 
      0.149114006744 
      0.108535600762 
      0.176014257832 
      0.184385481733 
      0.176170848571 
      0.175870931792 
      0.184542070722 
      0.175971727019 
      0.176223401665 
      0.149356488390 
      0.108534172521 
      0.176054295256 
      0.149473210645 
      0.176262904235 
      0.109074666304 
      0.057125823169 
     -0.000699830284 
      0.108929913008 
      0.057166173775 
      0.109191097467 
     -0.109027553985 
     -0.108893817779 
     -0.108858544874 
     -0.057082624915 