# vtk DataFile Version 2.0
NDG-FEM NonhydrostaticStandingWave2d Simulation
ASCII
DATASET UNSTRUCTURED_GRID

POINTS 160 double
0.00000000000000000000  0.00000000000000000000  0.00000000000000000000
1.00000000000000000000  0.00000000000000000000  0.00000000000000000000
0.00000000000000000000  1.00000000000000000000  0.00000000000000000000
1.00000000000000000000  1.00000000000000000000  0.00000000000000000000
1.00000000000000000000  0.00000000000000000000  0.00000000000000000000
2.00000000000000000000  0.00000000000000000000  0.00000000000000000000
1.00000000000000000000  1.00000000000000000000  0.00000000000000000000
2.00000000000000000000  1.00000000000000000000  0.00000000000000000000
2.00000000000000000000  0.00000000000000000000  0.00000000000000000000
3.00000000000000000000  0.00000000000000000000  0.00000000000000000000
2.00000000000000000000  1.00000000000000000000  0.00000000000000000000
3.00000000000000000000  1.00000000000000000000  0.00000000000000000000
3.00000000000000000000  0.00000000000000000000  0.00000000000000000000
4.00000000000000000000  0.00000000000000000000  0.00000000000000000000
3.00000000000000000000  1.00000000000000000000  0.00000000000000000000
4.00000000000000000000  1.00000000000000000000  0.00000000000000000000
4.00000000000000000000  0.00000000000000000000  0.00000000000000000000
5.00000000000000000000  0.00000000000000000000  0.00000000000000000000
4.00000000000000000000  1.00000000000000000000  0.00000000000000000000
5.00000000000000000000  1.00000000000000000000  0.00000000000000000000
5.00000000000000000000  0.00000000000000000000  0.00000000000000000000
6.00000000000000000000  0.00000000000000000000  0.00000000000000000000
5.00000000000000000000  1.00000000000000000000  0.00000000000000000000
6.00000000000000000000  1.00000000000000000000  0.00000000000000000000
6.00000000000000000000  0.00000000000000000000  0.00000000000000000000
7.00000000000000000000  0.00000000000000000000  0.00000000000000000000
6.00000000000000000000  1.00000000000000000000  0.00000000000000000000
7.00000000000000000000  1.00000000000000000000  0.00000000000000000000
7.00000000000000000000  0.00000000000000000000  0.00000000000000000000
8.00000000000000000000  0.00000000000000000000  0.00000000000000000000
7.00000000000000000000  1.00000000000000000000  0.00000000000000000000
8.00000000000000000000  1.00000000000000000000  0.00000000000000000000
8.00000000000000000000  0.00000000000000000000  0.00000000000000000000
9.00000000000000000000  0.00000000000000000000  0.00000000000000000000
8.00000000000000000000  1.00000000000000000000  0.00000000000000000000
9.00000000000000000000  1.00000000000000000000  0.00000000000000000000
9.00000000000000000000  0.00000000000000000000  0.00000000000000000000
10.00000000000000000000  0.00000000000000000000  0.00000000000000000000
9.00000000000000000000  1.00000000000000000000  0.00000000000000000000
10.00000000000000000000  1.00000000000000000000  0.00000000000000000000
10.00000000000000000000  0.00000000000000000000  0.00000000000000000000
11.00000000000000000000  0.00000000000000000000  0.00000000000000000000
10.00000000000000000000  1.00000000000000000000  0.00000000000000000000
11.00000000000000000000  1.00000000000000000000  0.00000000000000000000
11.00000000000000000000  0.00000000000000000000  0.00000000000000000000
12.00000000000000000000  0.00000000000000000000  0.00000000000000000000
11.00000000000000000000  1.00000000000000000000  0.00000000000000000000
12.00000000000000000000  1.00000000000000000000  0.00000000000000000000
12.00000000000000000000  0.00000000000000000000  0.00000000000000000000
13.00000000000000000000  0.00000000000000000000  0.00000000000000000000
12.00000000000000000000  1.00000000000000000000  0.00000000000000000000
13.00000000000000000000  1.00000000000000000000  0.00000000000000000000
13.00000000000000000000  0.00000000000000000000  0.00000000000000000000
14.00000000000000000000  0.00000000000000000000  0.00000000000000000000
13.00000000000000000000  1.00000000000000000000  0.00000000000000000000
14.00000000000000000000  1.00000000000000000000  0.00000000000000000000
14.00000000000000000000  0.00000000000000000000  0.00000000000000000000
15.00000000000000000000  0.00000000000000000000  0.00000000000000000000
14.00000000000000000000  1.00000000000000000000  0.00000000000000000000
15.00000000000000000000  1.00000000000000000000  0.00000000000000000000
15.00000000000000000000  0.00000000000000000000  0.00000000000000000000
16.00000000000000000000  0.00000000000000000000  0.00000000000000000000
15.00000000000000000000  1.00000000000000000000  0.00000000000000000000
16.00000000000000000000  1.00000000000000000000  0.00000000000000000000
16.00000000000000000000  0.00000000000000000000  0.00000000000000000000
17.00000000000000000000  0.00000000000000000000  0.00000000000000000000
16.00000000000000000000  1.00000000000000000000  0.00000000000000000000
17.00000000000000000000  1.00000000000000000000  0.00000000000000000000
17.00000000000000000000  0.00000000000000000000  0.00000000000000000000
18.00000000000000000000  0.00000000000000000000  0.00000000000000000000
17.00000000000000000000  1.00000000000000000000  0.00000000000000000000
18.00000000000000000000  1.00000000000000000000  0.00000000000000000000
18.00000000000000000000  0.00000000000000000000  0.00000000000000000000
19.00000000000000000000  0.00000000000000000000  0.00000000000000000000
18.00000000000000000000  1.00000000000000000000  0.00000000000000000000
19.00000000000000000000  1.00000000000000000000  0.00000000000000000000
19.00000000000000000000  0.00000000000000000000  0.00000000000000000000
20.00000000000000000000  0.00000000000000000000  0.00000000000000000000
19.00000000000000000000  1.00000000000000000000  0.00000000000000000000
20.00000000000000000000  1.00000000000000000000  0.00000000000000000000
0.00000000000000000000  1.00000000000000000000  0.00000000000000000000
1.00000000000000000000  1.00000000000000000000  0.00000000000000000000
0.00000000000000000000  2.00000000000000000000  0.00000000000000000000
1.00000000000000000000  2.00000000000000000000  0.00000000000000000000
1.00000000000000000000  1.00000000000000000000  0.00000000000000000000
2.00000000000000000000  1.00000000000000000000  0.00000000000000000000
1.00000000000000000000  2.00000000000000000000  0.00000000000000000000
2.00000000000000000000  2.00000000000000000000  0.00000000000000000000
2.00000000000000000000  1.00000000000000000000  0.00000000000000000000
3.00000000000000000000  1.00000000000000000000  0.00000000000000000000
2.00000000000000000000  2.00000000000000000000  0.00000000000000000000
3.00000000000000000000  2.00000000000000000000  0.00000000000000000000
3.00000000000000000000  1.00000000000000000000  0.00000000000000000000
4.00000000000000000000  1.00000000000000000000  0.00000000000000000000
3.00000000000000000000  2.00000000000000000000  0.00000000000000000000
4.00000000000000000000  2.00000000000000000000  0.00000000000000000000
4.00000000000000000000  1.00000000000000000000  0.00000000000000000000
5.00000000000000000000  1.00000000000000000000  0.00000000000000000000
4.00000000000000000000  2.00000000000000000000  0.00000000000000000000
5.00000000000000000000  2.00000000000000000000  0.00000000000000000000
5.00000000000000000000  1.00000000000000000000  0.00000000000000000000
6.00000000000000000000  1.00000000000000000000  0.00000000000000000000
5.00000000000000000000  2.00000000000000000000  0.00000000000000000000
6.00000000000000000000  2.00000000000000000000  0.00000000000000000000
6.00000000000000000000  1.00000000000000000000  0.00000000000000000000
7.00000000000000000000  1.00000000000000000000  0.00000000000000000000
6.00000000000000000000  2.00000000000000000000  0.00000000000000000000
7.00000000000000000000  2.00000000000000000000  0.00000000000000000000
7.00000000000000000000  1.00000000000000000000  0.00000000000000000000
8.00000000000000000000  1.00000000000000000000  0.00000000000000000000
7.00000000000000000000  2.00000000000000000000  0.00000000000000000000
8.00000000000000000000  2.00000000000000000000  0.00000000000000000000
8.00000000000000000000  1.00000000000000000000  0.00000000000000000000
9.00000000000000000000  1.00000000000000000000  0.00000000000000000000
8.00000000000000000000  2.00000000000000000000  0.00000000000000000000
9.00000000000000000000  2.00000000000000000000  0.00000000000000000000
9.00000000000000000000  1.00000000000000000000  0.00000000000000000000
10.00000000000000000000  1.00000000000000000000  0.00000000000000000000
9.00000000000000000000  2.00000000000000000000  0.00000000000000000000
10.00000000000000000000  2.00000000000000000000  0.00000000000000000000
10.00000000000000000000  1.00000000000000000000  0.00000000000000000000
11.00000000000000000000  1.00000000000000000000  0.00000000000000000000
10.00000000000000000000  2.00000000000000000000  0.00000000000000000000
11.00000000000000000000  2.00000000000000000000  0.00000000000000000000
11.00000000000000000000  1.00000000000000000000  0.00000000000000000000
12.00000000000000000000  1.00000000000000000000  0.00000000000000000000
11.00000000000000000000  2.00000000000000000000  0.00000000000000000000
12.00000000000000000000  2.00000000000000000000  0.00000000000000000000
12.00000000000000000000  1.00000000000000000000  0.00000000000000000000
13.00000000000000000000  1.00000000000000000000  0.00000000000000000000
12.00000000000000000000  2.00000000000000000000  0.00000000000000000000
13.00000000000000000000  2.00000000000000000000  0.00000000000000000000
13.00000000000000000000  1.00000000000000000000  0.00000000000000000000
14.00000000000000000000  1.00000000000000000000  0.00000000000000000000
13.00000000000000000000  2.00000000000000000000  0.00000000000000000000
14.00000000000000000000  2.00000000000000000000  0.00000000000000000000
14.00000000000000000000  1.00000000000000000000  0.00000000000000000000
15.00000000000000000000  1.00000000000000000000  0.00000000000000000000
14.00000000000000000000  2.00000000000000000000  0.00000000000000000000
15.00000000000000000000  2.00000000000000000000  0.00000000000000000000
15.00000000000000000000  1.00000000000000000000  0.00000000000000000000
16.00000000000000000000  1.00000000000000000000  0.00000000000000000000
15.00000000000000000000  2.00000000000000000000  0.00000000000000000000
16.00000000000000000000  2.00000000000000000000  0.00000000000000000000
16.00000000000000000000  1.00000000000000000000  0.00000000000000000000
17.00000000000000000000  1.00000000000000000000  0.00000000000000000000
16.00000000000000000000  2.00000000000000000000  0.00000000000000000000
17.00000000000000000000  2.00000000000000000000  0.00000000000000000000
17.00000000000000000000  1.00000000000000000000  0.00000000000000000000
18.00000000000000000000  1.00000000000000000000  0.00000000000000000000
17.00000000000000000000  2.00000000000000000000  0.00000000000000000000
18.00000000000000000000  2.00000000000000000000  0.00000000000000000000
18.00000000000000000000  1.00000000000000000000  0.00000000000000000000
19.00000000000000000000  1.00000000000000000000  0.00000000000000000000
18.00000000000000000000  2.00000000000000000000  0.00000000000000000000
19.00000000000000000000  2.00000000000000000000  0.00000000000000000000
19.00000000000000000000  1.00000000000000000000  0.00000000000000000000
20.00000000000000000000  1.00000000000000000000  0.00000000000000000000
19.00000000000000000000  2.00000000000000000000  0.00000000000000000000
20.00000000000000000000  2.00000000000000000000  0.00000000000000000000

CELLS 40 200
4 0 1 3 2 
4 4 5 7 6 
4 8 9 11 10 
4 12 13 15 14 
4 16 17 19 18 
4 20 21 23 22 
4 24 25 27 26 
4 28 29 31 30 
4 32 33 35 34 
4 36 37 39 38 
4 40 41 43 42 
4 44 45 47 46 
4 48 49 51 50 
4 52 53 55 54 
4 56 57 59 58 
4 60 61 63 62 
4 64 65 67 66 
4 68 69 71 70 
4 72 73 75 74 
4 76 77 79 78 
4 80 81 83 82 
4 84 85 87 86 
4 88 89 91 90 
4 92 93 95 94 
4 96 97 99 98 
4 100 101 103 102 
4 104 105 107 106 
4 108 109 111 110 
4 112 113 115 114 
4 116 117 119 118 
4 120 121 123 122 
4 124 125 127 126 
4 128 129 131 130 
4 132 133 135 134 
4 136 137 139 138 
4 140 141 143 142 
4 144 145 147 146 
4 148 149 151 150 
4 152 153 155 154 
4 156 157 159 158 

CELL_TYPES 40
9 9 9 9 9 9 9 9 9 9 9 9 
9 9 9 9 9 9 9 9 9 9 9 9 
9 9 9 9 9 9 9 9 9 9 9 9 
9 9 9 9 

POINT_DATA 160
SCALARS  H  double
LOOKUP_TABLE default
      7.525822620506 
      7.525599216802 
      7.525822620506 
      7.525599216802 
      7.525610670276 
      7.539725338557 
      7.525610670276 
      7.539725338557 
      7.539482624499 
      7.559272420527 
      7.539482624499 
      7.559272420527 
      7.559019914418 
      7.584375094660 
      7.559019914418 
      7.584375094660 
      7.584056993641 
      7.612067032118 
      7.584056993641 
      7.612067032118 
      7.611738492524 
      7.639766220982 
      7.611738492524 
      7.639766220982 
      7.639452565121 
      7.664738476546 
      7.639452565121 
      7.664738476546 
      7.664470797261 
      7.684531596522 
      7.664470797261 
      7.684531596522 
      7.684330843830 
      7.697268022673 
      7.684330843830 
      7.697268022673 
      7.697083677943 
      7.701587380595 
      7.697083677943 
      7.701587380595 
      7.701587380595 
      7.697083677943 
      7.701587380595 
      7.697083677943 
      7.697268022673 
      7.684330843830 
      7.697268022673 
      7.684330843830 
      7.684531596522 
      7.664470797261 
      7.684531596522 
      7.664470797261 
      7.664738476546 
      7.639452565121 
      7.664738476546 
      7.639452565121 
      7.639766220982 
      7.611738492524 
      7.639766220982 
      7.611738492524 
      7.612067032118 
      7.584056993641 
      7.612067032118 
      7.584056993641 
      7.584375094660 
      7.559019914418 
      7.584375094660 
      7.559019914418 
      7.559272420527 
      7.539482624499 
      7.559272420527 
      7.539482624499 
      7.539725338557 
      7.525610670276 
      7.539725338557 
      7.525610670276 
      7.525599216802 
      7.525822620506 
      7.525599216802 
      7.525822620506 
      7.525822620506 
      7.525599216802 
      7.525822620506 
      7.525599216802 
      7.525610670276 
      7.539725338557 
      7.525610670276 
      7.539725338557 
      7.539482624499 
      7.559272420527 
      7.539482624499 
      7.559272420527 
      7.559019914418 
      7.584375094660 
      7.559019914418 
      7.584375094660 
      7.584056993641 
      7.612067032118 
      7.584056993641 
      7.612067032118 
      7.611738492524 
      7.639766220982 
      7.611738492524 
      7.639766220982 
      7.639452565121 
      7.664738476546 
      7.639452565121 
      7.664738476546 
      7.664470797261 
      7.684531596522 
      7.664470797261 
      7.684531596522 
      7.684330843830 
      7.697268022673 
      7.684330843830 
      7.697268022673 
      7.697083677943 
      7.701587380595 
      7.697083677943 
      7.701587380595 
      7.701587380595 
      7.697083677943 
      7.701587380595 
      7.697083677943 
      7.697268022673 
      7.684330843830 
      7.697268022673 
      7.684330843830 
      7.684531596522 
      7.664470797261 
      7.684531596522 
      7.664470797261 
      7.664738476546 
      7.639452565121 
      7.664738476546 
      7.639452565121 
      7.639766220982 
      7.611738492524 
      7.639766220982 
      7.611738492524 
      7.612067032118 
      7.584056993641 
      7.612067032118 
      7.584056993641 
      7.584375094660 
      7.559019914418 
      7.584375094660 
      7.559019914418 
      7.559272420527 
      7.539482624499 
      7.559272420527 
      7.539482624499 
      7.539725338557 
      7.525610670276 
      7.539725338557 
      7.525610670276 
      7.525599216802 
      7.525822620506 
      7.525599216802 
      7.525822620506 
SCALARS  HU  double
LOOKUP_TABLE default
     -0.004305920058 
     -0.073843964450 
     -0.004305920058 
     -0.073843964450 
     -0.079450879641 
     -0.143393509381 
     -0.079450879641 
     -0.143393509381 
     -0.147850231026 
     -0.197933117883 
     -0.147850231026 
     -0.197933117883 
     -0.201291191158 
     -0.233641203417 
     -0.201291191158 
     -0.233641203417 
     -0.235205655946 
     -0.246343109478 
     -0.235205655946 
     -0.246343109478 
     -0.246076600703 
     -0.235026977321 
     -0.246076600703 
     -0.235026977321 
     -0.232925748773 
     -0.200764551743 
     -0.232925748773 
     -0.200764551743 
     -0.197055404292 
     -0.146933019032 
     -0.197055404292 
     -0.146933019032 
     -0.142034106420 
     -0.078750249162 
     -0.142034106420 
     -0.078750249162 
     -0.073813662785 
     -0.002255404635 
     -0.073813662785 
     -0.002255404635 
      0.002255404635 
      0.073813662785 
      0.002255404635 
      0.073813662785 
      0.078750249162 
      0.142034106420 
      0.078750249162 
      0.142034106420 
      0.146933019032 
      0.197055404292 
      0.146933019032 
      0.197055404292 
      0.200764551743 
      0.232925748773 
      0.200764551743 
      0.232925748773 
      0.235026977321 
      0.246076600703 
      0.235026977321 
      0.246076600703 
      0.246343109478 
      0.235205655946 
      0.246343109478 
      0.235205655946 
      0.233641203417 
      0.201291191158 
      0.233641203417 
      0.201291191158 
      0.197933117883 
      0.147850231026 
      0.197933117883 
      0.147850231026 
      0.143393509381 
      0.079450879641 
      0.143393509381 
      0.079450879641 
      0.073843964450 
      0.004305920058 
      0.073843964450 
      0.004305920058 
     -0.004305920058 
     -0.073843964450 
     -0.004305920058 
     -0.073843964450 
     -0.079450879641 
     -0.143393509381 
     -0.079450879641 
     -0.143393509381 
     -0.147850231026 
     -0.197933117883 
     -0.147850231026 
     -0.197933117883 
     -0.201291191158 
     -0.233641203417 
     -0.201291191158 
     -0.233641203417 
     -0.235205655946 
     -0.246343109478 
     -0.235205655946 
     -0.246343109478 
     -0.246076600703 
     -0.235026977321 
     -0.246076600703 
     -0.235026977321 
     -0.232925748773 
     -0.200764551743 
     -0.232925748773 
     -0.200764551743 
     -0.197055404292 
     -0.146933019032 
     -0.197055404292 
     -0.146933019032 
     -0.142034106420 
     -0.078750249162 
     -0.142034106420 
     -0.078750249162 
     -0.073813662785 
     -0.002255404635 
     -0.073813662785 
     -0.002255404635 
      0.002255404635 
      0.073813662785 
      0.002255404635 
      0.073813662785 
      0.078750249162 
      0.142034106420 
      0.078750249162 
      0.142034106420 
      0.146933019032 
      0.197055404292 
      0.146933019032 
      0.197055404292 
      0.200764551743 
      0.232925748773 
      0.200764551743 
      0.232925748773 
      0.235026977321 
      0.246076600703 
      0.235026977321 
      0.246076600703 
      0.246343109478 
      0.235205655946 
      0.246343109478 
      0.235205655946 
      0.233641203417 
      0.201291191158 
      0.233641203417 
      0.201291191158 
      0.197933117883 
      0.147850231026 
      0.197933117883 
      0.147850231026 
      0.143393509381 
      0.079450879641 
      0.143393509381 
      0.079450879641 
      0.073843964450 
      0.004305920058 
      0.073843964450 
      0.004305920058 
SCALARS  HV  double
LOOKUP_TABLE default
     -0.000000000000 
      0.000000000000 
      0.000000000000 
      0.000000000000 
      0.000000000000 
      0.000000000000 
      0.000000000000 
     -0.000000000000 
     -0.000000000000 
      0.000000000000 
      0.000000000000 
      0.000000000000 
      0.000000000000 
      0.000000000000 
      0.000000000000 
      0.000000000000 
      0.000000000000 
      0.000000000000 
      0.000000000000 
      0.000000000000 
      0.000000000000 
      0.000000000000 
      0.000000000000 
      0.000000000000 
      0.000000000000 
      0.000000000000 
      0.000000000000 
      0.000000000000 
      0.000000000000 
      0.000000000000 
      0.000000000000 
      0.000000000000 
      0.000000000000 
      0.000000000000 
      0.000000000000 
     -0.000000000000 
     -0.000000000000 
     -0.000000000000 
     -0.000000000000 
     -0.000000000000 
      0.000000000000 
     -0.000000000000 
      0.000000000000 
     -0.000000000000 
     -0.000000000000 
     -0.000000000000 
     -0.000000000000 
     -0.000000000000 
     -0.000000000000 
     -0.000000000000 
     -0.000000000000 
     -0.000000000000 
      0.000000000000 
     -0.000000000000 
     -0.000000000000 
     -0.000000000000 
     -0.000000000000 
     -0.000000000000 
     -0.000000000000 
     -0.000000000000 
     -0.000000000000 
     -0.000000000000 
     -0.000000000000 
     -0.000000000000 
     -0.000000000000 
      0.000000000000 
     -0.000000000000 
      0.000000000000 
      0.000000000000 
      0.000000000000 
      0.000000000000 
      0.000000000000 
      0.000000000000 
      0.000000000000 
      0.000000000000 
      0.000000000000 
      0.000000000000 
      0.000000000000 
      0.000000000000 
      0.000000000000 
      0.000000000000 
      0.000000000000 
     -0.000000000000 
      0.000000000000 
      0.000000000000 
      0.000000000000 
      0.000000000000 
     -0.000000000000 
      0.000000000000 
      0.000000000000 
      0.000000000000 
      0.000000000000 
      0.000000000000 
      0.000000000000 
      0.000000000000 
     -0.000000000000 
      0.000000000000 
      0.000000000000 
      0.000000000000 
      0.000000000000 
      0.000000000000 
      0.000000000000 
      0.000000000000 
      0.000000000000 
      0.000000000000 
     -0.000000000000 
     -0.000000000000 
     -0.000000000000 
     -0.000000000000 
     -0.000000000000 
      0.000000000000 
     -0.000000000000 
      0.000000000000 
     -0.000000000000 
     -0.000000000000 
      0.000000000000 
      0.000000000000 
     -0.000000000000 
      0.000000000000 
     -0.000000000000 
      0.000000000000 
     -0.000000000000 
     -0.000000000000 
      0.000000000000 
     -0.000000000000 
      0.000000000000 
      0.000000000000 
      0.000000000000 
     -0.000000000000 
     -0.000000000000 
      0.000000000000 
     -0.000000000000 
     -0.000000000000 
     -0.000000000000 
     -0.000000000000 
     -0.000000000000 
     -0.000000000000 
     -0.000000000000 
     -0.000000000000 
      0.000000000000 
     -0.000000000000 
     -0.000000000000 
     -0.000000000000 
     -0.000000000000 
     -0.000000000000 
      0.000000000000 
     -0.000000000000 
      0.000000000000 
      0.000000000000 
      0.000000000000 
     -0.000000000000 
      0.000000000000 
     -0.000000000000 
      0.000000000000 
      0.000000000000 
      0.000000000000 
      0.000000000000 
      0.000000000000 
      0.000000000000 
      0.000000000000 
SCALARS  HW  double
LOOKUP_TABLE default
      0.277714293007 
      0.281278605941 
      0.277714293007 
      0.281278605941 
      0.278475924724 
      0.234408930362 
      0.278475924724 
      0.234408930362 
      0.232745849362 
      0.170017902022 
      0.232745849362 
      0.170017902022 
      0.168517087628 
      0.087168439072 
      0.168517087628 
      0.087168439072 
      0.086291887756 
     -0.004106323955 
      0.086291887756 
     -0.004106323955 
     -0.004351105598 
     -0.095278747283 
     -0.004351105598 
     -0.095278747283 
     -0.094880248874 
     -0.177353862482 
     -0.094880248874 
     -0.177353862482 
     -0.176402576791 
     -0.242319588445 
     -0.176402576791 
     -0.242319588445 
     -0.240956588700 
     -0.284205919609 
     -0.240956588700 
     -0.284205919609 
     -0.282670532832 
     -0.298056481222 
     -0.282670532832 
     -0.298056481222 
     -0.298056481222 
     -0.282670532832 
     -0.298056481222 
     -0.282670532832 
     -0.284205919609 
     -0.240956588700 
     -0.284205919609 
     -0.240956588700 
     -0.242319588445 
     -0.176402576791 
     -0.242319588445 
     -0.176402576791 
     -0.177353862482 
     -0.094880248874 
     -0.177353862482 
     -0.094880248874 
     -0.095278747283 
     -0.004351105598 
     -0.095278747283 
     -0.004351105598 
     -0.004106323955 
      0.086291887756 
     -0.004106323955 
      0.086291887756 
      0.087168439072 
      0.168517087628 
      0.087168439072 
      0.168517087628 
      0.170017902022 
      0.232745849362 
      0.170017902022 
      0.232745849362 
      0.234408930362 
      0.278475924724 
      0.234408930362 
      0.278475924724 
      0.281278605941 
      0.277714293007 
      0.281278605941 
      0.277714293007 
      0.277714293007 
      0.281278605941 
      0.277714293007 
      0.281278605941 
      0.278475924724 
      0.234408930362 
      0.278475924724 
      0.234408930362 
      0.232745849362 
      0.170017902022 
      0.232745849362 
      0.170017902022 
      0.168517087628 
      0.087168439072 
      0.168517087628 
      0.087168439072 
      0.086291887756 
     -0.004106323955 
      0.086291887756 
     -0.004106323955 
     -0.004351105598 
     -0.095278747283 
     -0.004351105598 
     -0.095278747283 
     -0.094880248874 
     -0.177353862482 
     -0.094880248874 
     -0.177353862482 
     -0.176402576791 
     -0.242319588445 
     -0.176402576791 
     -0.242319588445 
     -0.240956588700 
     -0.284205919609 
     -0.240956588700 
     -0.284205919609 
     -0.282670532832 
     -0.298056481222 
     -0.282670532832 
     -0.298056481222 
     -0.298056481222 
     -0.282670532832 
     -0.298056481222 
     -0.282670532832 
     -0.284205919609 
     -0.240956588700 
     -0.284205919609 
     -0.240956588700 
     -0.242319588445 
     -0.176402576791 
     -0.242319588445 
     -0.176402576791 
     -0.177353862482 
     -0.094880248874 
     -0.177353862482 
     -0.094880248874 
     -0.095278747283 
     -0.004351105598 
     -0.095278747283 
     -0.004351105598 
     -0.004106323955 
      0.086291887756 
     -0.004106323955 
      0.086291887756 
      0.087168439072 
      0.168517087628 
      0.087168439072 
      0.168517087628 
      0.170017902022 
      0.232745849362 
      0.170017902022 
      0.232745849362 
      0.234408930362 
      0.278475924724 
      0.234408930362 
      0.278475924724 
      0.281278605941 
      0.277714293007 
      0.281278605941 
      0.277714293007 
SCALARS  q  double
LOOKUP_TABLE default
      0.485776250318 
      0.507820573649 
      0.485776250318 
      0.507820573649 
      0.502490013277 
      0.418932424039 
      0.502490013277 
      0.418932424039 
      0.415929213012 
      0.305699762092 
      0.415929213012 
      0.305699762092 
      0.302691497951 
      0.159216784428 
      0.302691497951 
      0.159216784428 
      0.157124944313 
     -0.001642735303 
      0.157124944313 
     -0.001642735303 
     -0.002752130294 
     -0.162340021953 
     -0.002752130294 
     -0.162340021953 
     -0.162324476461 
     -0.307086706855 
     -0.162324476461 
     -0.307086706855 
     -0.305954534762 
     -0.421761553223 
     -0.305954534762 
     -0.421761553223 
     -0.419665675607 
     -0.495833998014 
     -0.419665675607 
     -0.495833998014 
     -0.493169236452 
     -0.520344703560 
     -0.493169236452 
     -0.520344703560 
     -0.520344703560 
     -0.493169236452 
     -0.520344703560 
     -0.493169236452 
     -0.495833998014 
     -0.419665675607 
     -0.495833998014 
     -0.419665675608 
     -0.421761553223 
     -0.305954534762 
     -0.421761553223 
     -0.305954534762 
     -0.307086706855 
     -0.162324476461 
     -0.307086706855 
     -0.162324476461 
     -0.162340021953 
     -0.002752130294 
     -0.162340021953 
     -0.002752130294 
     -0.001642735303 
      0.157124944313 
     -0.001642735303 
      0.157124944313 
      0.159216784428 
      0.302691497951 
      0.159216784428 
      0.302691497951 
      0.305699762092 
      0.415929213012 
      0.305699762092 
      0.415929213012 
      0.418932424039 
      0.502490013277 
      0.418932424039 
      0.502490013277 
      0.507820573649 
      0.485776250318 
      0.507820573649 
      0.485776250318 
      0.485776250318 
      0.507820573649 
      0.485776250318 
      0.507820573649 
      0.502490013277 
      0.418932424039 
      0.502490013277 
      0.418932424039 
      0.415929213012 
      0.305699762092 
      0.415929213012 
      0.305699762092 
      0.302691497951 
      0.159216784428 
      0.302691497951 
      0.159216784428 
      0.157124944313 
     -0.001642735303 
      0.157124944313 
     -0.001642735303 
     -0.002752130294 
     -0.162340021953 
     -0.002752130294 
     -0.162340021953 
     -0.162324476461 
     -0.307086706855 
     -0.162324476461 
     -0.307086706855 
     -0.305954534762 
     -0.421761553223 
     -0.305954534762 
     -0.421761553223 
     -0.419665675607 
     -0.495833998014 
     -0.419665675608 
     -0.495833998014 
     -0.493169236452 
     -0.520344703560 
     -0.493169236452 
     -0.520344703560 
     -0.520344703560 
     -0.493169236452 
     -0.520344703560 
     -0.493169236452 
     -0.495833998014 
     -0.419665675608 
     -0.495833998014 
     -0.419665675608 
     -0.421761553223 
     -0.305954534762 
     -0.421761553223 
     -0.305954534762 
     -0.307086706855 
     -0.162324476461 
     -0.307086706855 
     -0.162324476461 
     -0.162340021953 
     -0.002752130294 
     -0.162340021953 
     -0.002752130294 
     -0.001642735303 
      0.157124944313 
     -0.001642735303 
      0.157124944313 
      0.159216784428 
      0.302691497951 
      0.159216784428 
      0.302691497951 
      0.305699762092 
      0.415929213012 
      0.305699762092 
      0.415929213012 
      0.418932424039 