# vtk DataFile Version 2.0
NDG-FEM NonhydrostaticStandingWave2d Simulation
ASCII
DATASET UNSTRUCTURED_GRID

POINTS 1800 double
0.00000000000000000000  0.00000000000000000000  0.00000000000000000000
1.00000000000000000000  0.00000000000000000000  0.00000000000000000000
2.00000000000000000000  0.00000000000000000000  0.00000000000000000000
0.00000000000000000000  1.00000000000000000000  0.00000000000000000000
1.00000000000000000000  1.00000000000000000000  0.00000000000000000000
0.00000000000000000000  2.00000000000000000000  0.00000000000000000000
2.00000000000000000000  0.00000000000000000000  0.00000000000000000000
3.00000000000000000000  0.00000000000000000000  0.00000000000000000000
4.00000000000000000000  0.00000000000000000000  0.00000000000000000000
2.00000000000000000000  1.00000000000000000000  0.00000000000000000000
3.00000000000000000000  1.00000000000000000000  0.00000000000000000000
2.00000000000000000000  2.00000000000000000000  0.00000000000000000000
4.00000000000000000000  0.00000000000000000000  0.00000000000000000000
5.00000000000000000000  0.00000000000000000000  0.00000000000000000000
6.00000000000000000000  0.00000000000000000000  0.00000000000000000000
4.00000000000000000000  1.00000000000000000000  0.00000000000000000000
5.00000000000000000000  1.00000000000000000000  0.00000000000000000000
4.00000000000000000000  2.00000000000000000000  0.00000000000000000000
6.00000000000000000000  0.00000000000000000000  0.00000000000000000000
7.00000000000000000000  0.00000000000000000000  0.00000000000000000000
8.00000000000000000000  0.00000000000000000000  0.00000000000000000000
6.00000000000000000000  1.00000000000000000000  0.00000000000000000000
7.00000000000000000000  1.00000000000000000000  0.00000000000000000000
6.00000000000000000000  2.00000000000000000000  0.00000000000000000000
8.00000000000000000000  0.00000000000000000000  0.00000000000000000000
9.00000000000000000000  0.00000000000000000000  0.00000000000000000000
10.00000000000000000000  0.00000000000000000000  0.00000000000000000000
8.00000000000000000000  1.00000000000000000000  0.00000000000000000000
9.00000000000000000000  1.00000000000000000000  0.00000000000000000000
8.00000000000000000000  2.00000000000000000000  0.00000000000000000000
10.00000000000000000000  0.00000000000000000000  0.00000000000000000000
11.00000000000000000000  0.00000000000000000000  0.00000000000000000000
12.00000000000000000000  0.00000000000000000000  0.00000000000000000000
10.00000000000000000000  1.00000000000000000000  0.00000000000000000000
11.00000000000000000000  1.00000000000000000000  0.00000000000000000000
10.00000000000000000000  2.00000000000000000000  0.00000000000000000000
12.00000000000000000000  0.00000000000000000000  0.00000000000000000000
13.00000000000000000000  0.00000000000000000000  0.00000000000000000000
14.00000000000000000000  0.00000000000000000000  0.00000000000000000000
12.00000000000000000000  1.00000000000000000000  0.00000000000000000000
13.00000000000000000000  1.00000000000000000000  0.00000000000000000000
12.00000000000000000000  2.00000000000000000000  0.00000000000000000000
14.00000000000000000000  0.00000000000000000000  0.00000000000000000000
15.00000000000000000000  0.00000000000000000000  0.00000000000000000000
16.00000000000000000000  0.00000000000000000000  0.00000000000000000000
14.00000000000000000000  1.00000000000000000000  0.00000000000000000000
15.00000000000000000000  1.00000000000000000000  0.00000000000000000000
14.00000000000000000000  2.00000000000000000000  0.00000000000000000000
16.00000000000000000000  0.00000000000000000000  0.00000000000000000000
17.00000000000000000000  0.00000000000000000000  0.00000000000000000000
18.00000000000000000000  0.00000000000000000000  0.00000000000000000000
16.00000000000000000000  1.00000000000000000000  0.00000000000000000000
17.00000000000000000000  1.00000000000000000000  0.00000000000000000000
16.00000000000000000000  2.00000000000000000000  0.00000000000000000000
18.00000000000000000000  0.00000000000000000000  0.00000000000000000000
19.00000000000000000000  0.00000000000000000000  0.00000000000000000000
20.00000000000000000000  0.00000000000000000000  0.00000000000000000000
18.00000000000000000000  1.00000000000000000000  0.00000000000000000000
19.00000000000000000000  1.00000000000000000000  0.00000000000000000000
18.00000000000000000000  2.00000000000000000000  0.00000000000000000000
20.00000000000000000000  0.00000000000000000000  0.00000000000000000000
21.00000000000000000000  0.00000000000000000000  0.00000000000000000000
22.00000000000000000000  0.00000000000000000000  0.00000000000000000000
20.00000000000000000000  1.00000000000000000000  0.00000000000000000000
21.00000000000000000000  1.00000000000000000000  0.00000000000000000000
20.00000000000000000000  2.00000000000000000000  0.00000000000000000000
22.00000000000000000000  0.00000000000000000000  0.00000000000000000000
23.00000000000000000000  0.00000000000000000000  0.00000000000000000000
24.00000000000000000000  0.00000000000000000000  0.00000000000000000000
22.00000000000000000000  1.00000000000000000000  0.00000000000000000000
23.00000000000000000000  1.00000000000000000000  0.00000000000000000000
22.00000000000000000000  2.00000000000000000000  0.00000000000000000000
24.00000000000000000000  0.00000000000000000000  0.00000000000000000000
25.00000000000000000000  0.00000000000000000000  0.00000000000000000000
26.00000000000000000000  0.00000000000000000000  0.00000000000000000000
24.00000000000000000000  1.00000000000000000000  0.00000000000000000000
25.00000000000000000000  1.00000000000000000000  0.00000000000000000000
24.00000000000000000000  2.00000000000000000000  0.00000000000000000000
26.00000000000000000000  0.00000000000000000000  0.00000000000000000000
27.00000000000000000000  0.00000000000000000000  0.00000000000000000000
28.00000000000000000000  0.00000000000000000000  0.00000000000000000000
26.00000000000000000000  1.00000000000000000000  0.00000000000000000000
27.00000000000000000000  1.00000000000000000000  0.00000000000000000000
26.00000000000000000000  2.00000000000000000000  0.00000000000000000000
28.00000000000000000000  0.00000000000000000000  0.00000000000000000000
29.00000000000000000000  0.00000000000000000000  0.00000000000000000000
30.00000000000000000000  0.00000000000000000000  0.00000000000000000000
28.00000000000000000000  1.00000000000000000000  0.00000000000000000000
29.00000000000000000000  1.00000000000000000000  0.00000000000000000000
28.00000000000000000000  2.00000000000000000000  0.00000000000000000000
30.00000000000000000000  0.00000000000000000000  0.00000000000000000000
31.00000000000000000000  0.00000000000000000000  0.00000000000000000000
32.00000000000000000000  0.00000000000000000000  0.00000000000000000000
30.00000000000000000000  1.00000000000000000000  0.00000000000000000000
31.00000000000000000000  1.00000000000000000000  0.00000000000000000000
30.00000000000000000000  2.00000000000000000000  0.00000000000000000000
32.00000000000000000000  0.00000000000000000000  0.00000000000000000000
33.00000000000000000000  0.00000000000000000000  0.00000000000000000000
34.00000000000000000000  0.00000000000000000000  0.00000000000000000000
32.00000000000000000000  1.00000000000000000000  0.00000000000000000000
33.00000000000000000000  1.00000000000000000000  0.00000000000000000000
32.00000000000000000000  2.00000000000000000000  0.00000000000000000000
34.00000000000000000000  0.00000000000000000000  0.00000000000000000000
35.00000000000000000000  0.00000000000000000000  0.00000000000000000000
36.00000000000000000000  0.00000000000000000000  0.00000000000000000000
34.00000000000000000000  1.00000000000000000000  0.00000000000000000000
35.00000000000000000000  1.00000000000000000000  0.00000000000000000000
34.00000000000000000000  2.00000000000000000000  0.00000000000000000000
36.00000000000000000000  0.00000000000000000000  0.00000000000000000000
37.00000000000000000000  0.00000000000000000000  0.00000000000000000000
38.00000000000000000000  0.00000000000000000000  0.00000000000000000000
36.00000000000000000000  1.00000000000000000000  0.00000000000000000000
37.00000000000000000000  1.00000000000000000000  0.00000000000000000000
36.00000000000000000000  2.00000000000000000000  0.00000000000000000000
38.00000000000000000000  0.00000000000000000000  0.00000000000000000000
39.00000000000000000000  0.00000000000000000000  0.00000000000000000000
40.00000000000000000000  0.00000000000000000000  0.00000000000000000000
38.00000000000000000000  1.00000000000000000000  0.00000000000000000000
39.00000000000000000000  1.00000000000000000000  0.00000000000000000000
38.00000000000000000000  2.00000000000000000000  0.00000000000000000000
40.00000000000000000000  0.00000000000000000000  0.00000000000000000000
41.00000000000000000000  0.00000000000000000000  0.00000000000000000000
42.00000000000000000000  0.00000000000000000000  0.00000000000000000000
40.00000000000000000000  1.00000000000000000000  0.00000000000000000000
41.00000000000000000000  1.00000000000000000000  0.00000000000000000000
40.00000000000000000000  2.00000000000000000000  0.00000000000000000000
42.00000000000000000000  0.00000000000000000000  0.00000000000000000000
43.00000000000000000000  0.00000000000000000000  0.00000000000000000000
44.00000000000000000000  0.00000000000000000000  0.00000000000000000000
42.00000000000000000000  1.00000000000000000000  0.00000000000000000000
43.00000000000000000000  1.00000000000000000000  0.00000000000000000000
42.00000000000000000000  2.00000000000000000000  0.00000000000000000000
44.00000000000000000000  0.00000000000000000000  0.00000000000000000000
45.00000000000000000000  0.00000000000000000000  0.00000000000000000000
46.00000000000000000000  0.00000000000000000000  0.00000000000000000000
44.00000000000000000000  1.00000000000000000000  0.00000000000000000000
45.00000000000000000000  1.00000000000000000000  0.00000000000000000000
[...]
POINT_DATA 1800
SCALARS  H  double
LOOKUP_TABLE default
      7.556645370225 
      7.559348616817 
      7.567583512210 
      7.556676385018 
      7.559376567180 
      7.556650430335 
      7.567233155320 
      7.579607655176 
      7.595481574458 
      7.567294988660 
      7.579635590488 
      7.567258793213 
      7.595016580221 
      7.612175139852 
      7.629490201825 
      7.595060960253 
      7.612184145595 
      7.595010265889 
      7.629109362661 
      7.644461910737 
      7.656644355966 
      7.629124717134 
      7.644447087722 
      7.629081546371 
      7.656488949463 
      7.664283646782 
      7.666824093809 
      7.656469949561 
      7.664251381755 
      7.656451958678 
      7.666937622470 
      7.664309434295 
      7.656281660410 
      7.666892554335 
      7.664272487449 
      7.666906712497 
      7.656614972494 
      7.644530851350 
      7.628885321410 
      7.656561475140 
      7.644503178706 
      7.656602320833 
      7.629323334006 
      7.612263298632 
      7.594855229538 
      7.629280864862 
      7.612254879079 
      7.629332973526 
      7.595245225709 
      7.579677018965 
      7.567196142198 
      7.595228683332 
      7.579690917098 
      7.595272382207 
      7.567386164719 
      7.559365492713 
      7.556727875000 
      7.567401720574 
      7.559397039719 
      7.567420173633 
      7.556628491529 
      7.559336315118 
      7.567597098527 
      7.556671105665 
      7.559373970525 
      7.556656935320 
      7.567239908962 
      7.579602599341 
      7.595483809696 
      7.567293697983 
      7.579631636230 
      7.567252352130 
      7.595018941245 
      7.612174906654 
      7.629490239007 
      7.595062408041 
      7.612183666899 
      7.595009956554 
      7.629109537215 
      7.644461918421 
      7.656644320247 
      7.629124769484 
      7.644447071198 
      7.629081316811 
      7.656488930213 
      7.664283651188 
      7.666824096362 
      7.656469931984 
      7.664251380270 
      7.656451932345 
      7.666937616963 
      7.664309434224 
      7.656281662233 
      7.666892551834 
      7.664272487228 
      7.666906712549 
      7.656614971950 
      7.644530851278 
      7.628885321666 
      7.656561474948 
      7.644503178700 
      7.656602321039 
      7.629323333970 
      7.612263298624 
      7.594855229559 
      7.629280864849 
      7.612254879081 
      7.629332973550 
      7.595245225707 
      7.579677018964 
      7.567196142199 
      7.595228683331 
      7.579690917098 
      7.595272382209 
      7.567386164719 
      7.559365492713 
      7.556727875000 
      7.567401720574 
      7.559397039719 
      7.567420173633 
      7.556628491529 
      7.559336315118 
      7.567597098527 
      7.556671105665 
      7.559373970525 
      7.556656935320 
      7.567239908962 
      7.579602599341 
      7.595483809696 
      7.567293697983 
      7.579631636230 
      7.567252352130 
      7.595018941245 
      7.612174906654 
      7.629490239007 
      7.595062408041 
      7.612183666899 
      7.595009956554 
      7.629109537215 
      7.644461918421 
      7.656644320247 
      7.629124769484 
      7.644447071198 
      7.629081316811 
      7.656488930213 
      7.664283651188 
      7.666824096362 
      7.656469931984 
      7.664251380270 
      7.656451932345 
      7.666937616963 
      7.664309434224 
      7.656281662233 
      7.666892551834 
      7.664272487228 
      7.666906712549 
      7.656614971950 
      7.644530851278 
      7.628885321666 
      7.656561474948 
      7.644503178700 
      7.656602321039 
      7.629323333970 
      7.612263298624 
      7.594855229559 
      7.629280864849 
      7.612254879081 
      7.629332973550 
      7.595245225707 
      7.579677018964 
      7.567196142199 
      7.595228683331 
      7.579690917098 
      7.595272382209 
      7.567386164719 
      7.559365492713 
      7.556727875000 
      7.567401720574 
      7.559397039719 
      7.567420173633 
      7.556628491529 
      7.559336315118 
      7.567597098527 
      7.556671105665 
      7.559373970525 
      7.556656935320 
      7.567239908962 
      7.579602599341 
      7.595483809696 
      7.567293697983 
      7.579631636230 
      7.567252352130 
      7.595018941245 
      7.612174906654 
      7.629490239007 
      7.595062408041 
      7.612183666899 
      7.595009956554 
      7.629109537215 
      7.644461918421 
      7.656644320247 
      7.629124769484 
      7.644447071198 
      7.629081316811 
      7.656488930213 
      7.664283651188 
      7.666824096362 
      7.656469931984 
      7.664251380270 
      7.656451932345 
      7.666937616963 
      7.664309434224 
      7.656281662233 
      7.666892551834 
      7.664272487228 
      7.666906712549 
      7.656614971950 
      7.644530851278 
      7.628885321666 
      7.656561474948 
      7.644503178700 
      7.656602321039 
      7.629323333970 
      7.612263298624 
      7.594855229559 
      7.629280864849 
      7.612254879081 
      7.629332973550 
      7.595245225707 
      7.579677018964 
      7.567196142199 
      7.595228683331 
      7.579690917098 
      7.595272382209 
      7.567386164719 
      7.559365492713 
      7.556727875000 
      7.567401720574 
      7.559397039719 
      7.567420173633 
      7.556628491529 
      7.559336315118 
      7.567597098527 
      7.556671105665 
      7.559373970525 
      7.556656935320 
      7.567239908961 
      7.579602599341 
      7.595483809696 
      7.567293697983 
      7.579631636230 
      7.567252352130 
      7.595018941244 
      7.612174906654 
      7.629490239001 
      7.595062408041 
      7.612183666899 
      7.595009956553 
      7.629109537207 
      7.644461918424 
      7.656644320153 
      7.629124769486 
      7.644447071181 
      7.629081316811 
      7.656488930152 
      7.664283651194 
      7.666824095664 
      7.656469932109 
      7.664251379888 
      7.656451932238 
      7.666937616785 
      7.664309433996 
      7.656281663462 
      7.666892553501 
      7.664272482747 
      7.666906709770 
      7.656614971925 
      7.644530851294 
      7.628885453180 
      7.656561489637 
      7.644503141198 
      7.656602298982 
      7.629323389600 
      7.612263248539 
      7.594857192184 
      7.629281016417 
      7.612254499514 
      7.629333122157 
      7.595246886113 
      7.579673695076 
      7.567194604432 
      7.595230730850 
      7.579687029726 
      7.595275310549 
      7.567393579678 
      7.559354344391 
      7.556690489698 
      7.567407172476 
      7.559394757842 
      7.567421932598 
      7.567423184378 
      7.567436334997 
      7.567439424904 
      7.559384937731 
      7.559358242481 
      7.556663074005 
      7.595272074527 
      7.595262227884 
      7.595272024932 
      7.579677958029 
      7.579660757840 
      7.567152116928 
      7.629320855125 
      7.629302347833 
      7.629319801210 
      7.612237873178 
      7.612244692355 
      7.594835243437 
      7.656580441593 
      7.656560478515 
      7.656581930134 
      7.644490600604 
      7.644516377519 
      7.628905576464 
      7.666882470871 
      7.666868594788 
      7.666886813539 
      7.664269972560 
      7.664304285249 
      7.656335252158 
      7.656435431531 
      7.656432526339 
      7.656439861964 
      7.664260371560 
      7.664290036340 
      7.666889527511 
      7.629080268374 
      7.629089260129 
      7.629081775131 
      7.644463934819 
      7.644477747733 
      7.656695409780 
      7.595024825531 
      7.595042615494 
      7.595023007240 
      7.612201420106 
      7.612194208630 
      7.629507972133 
      7.567276235970 
      7.567296382033 
      7.567273024746 
      7.579643381209 
      7.579617822121 
      7.595462813250 
      7.556679986521 
      7.556694592952 
      7.556677064140 
      7.559375637467 
      7.559341424012 
      7.567545783591 
      7.567434360714 
      7.567437402819 
      7.567431800430 
      7.559388383913 
      7.559358646120 
      7.556664776041 
      7.595273592933 
      7.595263845281 
      7.595271109812 
      7.579675114594 
      7.579661281437 
      7.567144209845 
      7.629320916776 
      7.629302412963 
      7.629319556251 
      7.612237454125 
      7.612244849202 
      7.594834602967 
      7.656580412475 
      7.656560472384 
      7.656581930442 
      7.644490582682 
      7.644516398006 
      7.628905327576 
      7.666882468441 
      7.666868595441 
      7.666886818701 
      7.664269972558 
      7.664304282928 
      7.656335215405 
      7.656435431836 
      7.656432526469 
      7.656439862720 
      7.664260371741 
      7.664290035860 
      7.666889525204 
      7.629080268440 
      7.629089260135 
      7.629081775202 
      7.644463934853 
      7.644477747691 
      7.656695409726 
      7.595024825536 
      7.595042615493 
      7.595023007245 
      7.612201420110 
      7.612194208627 
      7.629507972137 
      7.567276235971 
      7.567296382033 
      7.567273024747 
      7.579643381209 
      7.579617822120 
      7.595462813251 
      7.556679986521 
      7.556694592952 
      7.556677064140 
      7.559375637467 
      7.559341424012 
      7.567545783591 
      7.567434360714 
      7.567437402819 
      7.567431800430 
      7.559388383913 
      7.559358646120 
      7.556664776041 
      7.595273592933 
      7.595263845281 
      7.595271109812 
      7.579675114594 
      7.579661281437 
      7.567144209845 
      7.629320916776 
      7.629302412963 
      7.629319556251 
      7.612237454125 
      7.612244849202 
      7.594834602967 
      7.656580412475 
      7.656560472384 
      7.656581930442 
      7.644490582682 
      7.644516398006 
      7.628905327576 
      7.666882468441 
      7.666868595441 
      7.666886818701 
      7.664269972558 
      7.664304282928 
      7.656335215405 
      7.656435431836 
      7.656432526469 
      7.656439862720 
      7.664260371741 
      7.664290035860 
      7.666889525204 
      7.629080268440 
      7.629089260135 
      7.629081775202 
      7.644463934853 
      7.644477747691 
      7.656695409726 
      7.595024825536 
      7.595042615493 
      7.595023007245 
      7.612201420110 
      7.612194208627 
      7.629507972137 
      7.567276235971 
      7.567296382033 
      7.567273024747 
      7.579643381209 
      7.579617822120 
      7.595462813251 
      7.556679986521 
      7.556694592952 
      7.556677064140 
      7.559375637467 
      7.559341424012 
      7.567545783591 
      7.567434360714 
      7.567437402819 
      7.567431800430 
      7.559388383913 
      7.559358646120 
      7.556664776041 
      7.595273592933 
      7.595263845281 
      7.595271109812 
      7.579675114594 
      7.579661281437 
      7.567144209845 
      7.629320916776 
      7.629302412963 
      7.629319556251 
      7.612237454125 
      7.612244849202 
      7.594834602967 
      7.656580412475 
      7.656560472384 
      7.656581930442 
      7.644490582682 
      7.644516398006 
      7.628905327576 
      7.666882468441 
      7.666868595441 
      7.666886818701 
      7.664269972558 
      7.664304282928 
      7.656335215405 
      7.656435431836 
      7.656432526469 
      7.656439862720 
      7.664260371741 
      7.664290035860 
      7.666889525204 
      7.629080268440 
      7.629089260135 
      7.629081775202 
      7.644463934853 
      7.644477747691 
      7.656695409726 
      7.595024825536 
      7.595042615493 
      7.595023007245 
      7.612201420110 
      7.612194208627 
      7.629507972137 
      7.567276235971 
      7.567296382033 
      7.567273024747 
      7.579643381209 
      7.579617822120 
      7.595462813251 
      7.556679986521 
      7.556694592952 
      7.556677064140 
      7.559375637467 
      7.559341424012 
      7.567545783591 
      7.567434360714 
      7.567437402818 
      7.567431800430 
      7.559388383913 
      7.559358646120 
      7.556664776041 
      7.595273592932 
      7.595263845280 
      7.595271109812 
      7.579675114594 
      7.579661281437 
      7.567144209845 
      7.629320916769 
      7.629302412962 
      7.629319556252 
      7.612237454125 
      7.612244849202 
      7.594834602967 
      7.656580412431 
      7.656560472455 
      7.656581930502 
      7.644490582653 
      7.644516397998 
      7.628905327588 
      7.666882468545 
      7.666868596946 
      7.666886819570 
      7.664269972108 
      7.664304283058 
      7.656335215221 
      7.656435438100 
      7.656432546424 
      7.656439880786 
      7.664260368241 
      7.664290040148 
      7.666889518453 
      7.629080404946 
      7.629089511064 
      7.629082124558 
      7.644463916291 
      7.644477778202 
      7.656695338751 
      7.595027071104 
      7.595045064456 
      7.595025716622 
      7.612201086057 
      7.612193811894 
      7.629508089355 
      7.567279750503 
      7.567297649636 
      7.567273122028 
      7.579638593980 
      7.579614644142 
      7.595467988926 
      7.556653832183 
      7.556696033743 
      7.556676473425 
      7.559373374541 
      7.559335626125 
      7.567548360487 
      7.556688117396 
      7.559334543953 
      7.567546644376 
      7.556705996798 
      7.559358883789 
      7.556653599067 
      7.567275891522 
      7.579608690325 
      7.595449733497 
      7.567308766649 
      7.579626184101 
      7.567260093093 
      7.595009806823 
      7.612182463596 
      7.629490602691 
      7.595057366062 
      7.612192721737 
      7.595025397745 
      7.629062510199 
      7.644468553789 
      7.656679728319 
      7.629098563721 
      7.644468276352 
      7.629092145181 
      7.656422201886 
      7.664286748729 
      7.666882602964 
      7.656432875243 
      7.664276088969 
      7.656455121151 
      7.666878251733 
      7.664307926417 
      7.656339896140 
      7.666859645230 
      7.664290927796 
      7.666900777271 
      7.656586020351 
      7.644525456867 
      7.628919416746 
      7.656545769167 
      7.644508259946 
      7.656589818004 
      7.629334441676 
      7.612255954814 
      7.594852332754 
      7.629288080021 
      7.612244904367 
      7.629319422248 
      7.595290673227 
      7.579670347394 
      7.567159082155 
      7.595255536998 
      7.579669826854 
      7.595263231390 
      7.567448626575 
      7.559362216822 
      7.556671759716 
      7.567437930818 
      7.559372703725 
      7.567418382445 
      7.556685231473 
      7.559337966927 
      7.567542397616 
      7.556703377909 
      7.559355405847 
      7.556662638560 
      7.567269688818 
      7.579608510610 
      7.595449920223 
      7.567310172654 
      7.579625872384 
      7.567263671679 
      7.595009122834 
      7.612182674076 
      7.629490158340 
      7.595056598970 
      7.612193105267 
      7.595023362864 
      7.629062209710 
      7.644468581688 
      7.656679763840 
      7.629098312500 
      7.644468274187 
      7.629091917029 
      7.656422168315 
      7.664286744082 
      7.666882620685 
      7.656432856438 
      7.664276084214 
      7.656455119458 
      7.666878250414 
      7.664307925557 
      7.656339898212 
      7.666859644147 
      7.664290927520 
      7.666900777952 
      7.656586020340 
      7.644525456807 
      7.628919416883 
      7.656545769061 
      7.644508259960 
      7.656589818071 
      7.629334441674 
      7.612255954812 
      7.594852332760 
      7.629288080012 
      7.612244904369 
      7.629319422257 
      7.595290673227 
      7.579670347394 
      7.567159082155 
      7.595255536998 
      7.579669826854 
      7.595263231391 
      7.567448626575 
      7.559362216822 
      7.556671759716 
      7.567437930818 
      7.559372703725 
      7.567418382445 
      7.556685231473 
      7.559337966927 
      7.567542397616 
      7.556703377909 
      7.559355405847 
      7.556662638560 
      7.567269688818 
      7.579608510610 
      7.595449920223 
      7.567310172654 
      7.579625872384 
      7.567263671679 
      7.595009122834 
      7.612182674076 
      7.629490158340 
      7.595056598970 
      7.612193105267 
      7.595023362864 
      7.629062209710 
      7.644468581688 
      7.656679763840 
      7.629098312500 
      7.644468274187 
      7.629091917029 
      7.656422168315 
      7.664286744082 
      7.666882620685 
      7.656432856438 
      7.664276084214 
      7.656455119458 
      7.666878250414 
      7.664307925557 
      7.656339898212 
      7.666859644147 
      7.664290927520 
      7.666900777952 
      7.656586020340 
      7.644525456807 
      7.628919416883 
      7.656545769061 
      7.644508259960 
      7.656589818071 
      7.629334441674 
      7.612255954812 
      7.594852332760 
      7.629288080012 
      7.612244904369 
      7.629319422257 
      7.595290673227 
      7.579670347394 
      7.567159082155 
      7.595255536998 
      7.579669826854 
      7.595263231391 
      7.567448626575 
      7.559362216822 
      7.556671759716 
      7.567437930818 
      7.559372703725 
      7.567418382445 
      7.556685231473 
      7.559337966927 
      7.567542397616 
      7.556703377909 
      7.559355405847 
      7.556662638560 
      7.567269688818 
      7.579608510610 
      7.595449920223 
      7.567310172654 
      7.579625872384 
      7.567263671679 
      7.595009122834 
      7.612182674076 
      7.629490158340 
      7.595056598970 
      7.612193105267 
      7.595023362864 
      7.629062209710 
      7.644468581688 
      7.656679763840 
      7.629098312500 
      7.644468274187 
      7.629091917029 
      7.656422168315 
      7.664286744082 
      7.666882620685 
      7.656432856438 
      7.664276084214 
      7.656455119458 
      7.666878250414 
      7.664307925557 
      7.656339898212 
      7.666859644147 
      7.664290927520 
      7.666900777952 
      7.656586020340 
      7.644525456807 
      7.628919416883 
      7.656545769061 
      7.644508259960 
      7.656589818071 
      7.629334441674 
      7.612255954812 
      7.594852332760 
      7.629288080012 
      7.612244904369 
      7.629319422257 
      7.595290673227 
      7.579670347394 
      7.567159082155 
      7.595255536998 
      7.579669826854 
      7.595263231391 
      7.567448626575 
      7.559362216822 
      7.556671759716 
      7.567437930818 
      7.559372703725 
      7.567418382445 
      7.556685231473 
      7.559337966927 
      7.567542397616 
      7.556703377909 
      7.559355405847 
      7.556662638560 
      7.567269688818 
      7.579608510610 
      7.595449920222 
      7.567310172654 
      7.579625872383 
      7.567263671679 
      7.595009122832 
      7.612182674077 
      7.629490158333 
      7.595056598970 
      7.612193105264 
      7.595023362862 
      7.629062209693 
      7.644468581696 
      7.656679763822 
      7.629098312508 
      7.644468274149 
      7.629091916982 
      7.656422168084 
      7.664286744218 
      7.666882621385 
      7.656432856399 
      7.664276083969 
      7.656455118762 
      7.666878246916 
      7.664307928168 
      7.656339918373 
      7.666859642409 
      7.664290926658 
      7.666900772841 
      7.656585985051 
      7.644525477195 
      7.628919735706 
      7.656545758425 
      7.644508243863 
      7.656589819965 
      7.629334396790 
      7.612255709748 
      7.594854173407 
      7.629288248433 
      7.612244676629 
      7.629319703283 
      7.595292811443 
      7.579668423791 
      7.567155584966 
      7.595256729339 
      7.579670485328 
      7.595263249264 
      7.567449932275 
      7.559361469322 
      7.556666463219 
      7.567435480926 
      7.559373153101 
      7.567425269433 
      7.567425269433 
      7.567435480926 
      7.567449932275 
      7.559373153101 
      7.559361469322 
      7.556666463219 