# vtk DataFile Version 2.0
NDG-FEM NonhydrostaticStandingWave2d Simulation
ASCII
DATASET UNSTRUCTURED_GRID

POINTS 160 double
0.00000000000000000000  0.00000000000000000000  0.00000000000000000000
1.00000000000000000000  0.00000000000000000000  0.00000000000000000000
0.00000000000000000000  1.00000000000000000000  0.00000000000000000000
1.00000000000000000000  1.00000000000000000000  0.00000000000000000000
1.00000000000000000000  0.00000000000000000000  0.00000000000000000000
2.00000000000000000000  0.00000000000000000000  0.00000000000000000000
1.00000000000000000000  1.00000000000000000000  0.00000000000000000000
2.00000000000000000000  1.00000000000000000000  0.00000000000000000000
2.00000000000000000000  0.00000000000000000000  0.00000000000000000000
3.00000000000000000000  0.00000000000000000000  0.00000000000000000000
2.00000000000000000000  1.00000000000000000000  0.00000000000000000000
3.00000000000000000000  1.00000000000000000000  0.00000000000000000000
3.00000000000000000000  0.00000000000000000000  0.00000000000000000000
4.00000000000000000000  0.00000000000000000000  0.00000000000000000000
3.00000000000000000000  1.00000000000000000000  0.00000000000000000000
4.00000000000000000000  1.00000000000000000000  0.00000000000000000000
4.00000000000000000000  0.00000000000000000000  0.00000000000000000000
5.00000000000000000000  0.00000000000000000000  0.00000000000000000000
4.00000000000000000000  1.00000000000000000000  0.00000000000000000000
5.00000000000000000000  1.00000000000000000000  0.00000000000000000000
5.00000000000000000000  0.00000000000000000000  0.00000000000000000000
6.00000000000000000000  0.00000000000000000000  0.00000000000000000000
5.00000000000000000000  1.00000000000000000000  0.00000000000000000000
6.00000000000000000000  1.00000000000000000000  0.00000000000000000000
6.00000000000000000000  0.00000000000000000000  0.00000000000000000000
7.00000000000000000000  0.00000000000000000000  0.00000000000000000000
6.00000000000000000000  1.00000000000000000000  0.00000000000000000000
7.00000000000000000000  1.00000000000000000000  0.00000000000000000000
7.00000000000000000000  0.00000000000000000000  0.00000000000000000000
8.00000000000000000000  0.00000000000000000000  0.00000000000000000000
7.00000000000000000000  1.00000000000000000000  0.00000000000000000000
8.00000000000000000000  1.00000000000000000000  0.00000000000000000000
8.00000000000000000000  0.00000000000000000000  0.00000000000000000000
9.00000000000000000000  0.00000000000000000000  0.00000000000000000000
8.00000000000000000000  1.00000000000000000000  0.00000000000000000000
9.00000000000000000000  1.00000000000000000000  0.00000000000000000000
9.00000000000000000000  0.00000000000000000000  0.00000000000000000000
10.00000000000000000000  0.00000000000000000000  0.00000000000000000000
9.00000000000000000000  1.00000000000000000000  0.00000000000000000000
10.00000000000000000000  1.00000000000000000000  0.00000000000000000000
10.00000000000000000000  0.00000000000000000000  0.00000000000000000000
11.00000000000000000000  0.00000000000000000000  0.00000000000000000000
10.00000000000000000000  1.00000000000000000000  0.00000000000000000000
11.00000000000000000000  1.00000000000000000000  0.00000000000000000000
11.00000000000000000000  0.00000000000000000000  0.00000000000000000000
12.00000000000000000000  0.00000000000000000000  0.00000000000000000000
11.00000000000000000000  1.00000000000000000000  0.00000000000000000000
12.00000000000000000000  1.00000000000000000000  0.00000000000000000000
12.00000000000000000000  0.00000000000000000000  0.00000000000000000000
13.00000000000000000000  0.00000000000000000000  0.00000000000000000000
12.00000000000000000000  1.00000000000000000000  0.00000000000000000000
13.00000000000000000000  1.00000000000000000000  0.00000000000000000000
13.00000000000000000000  0.00000000000000000000  0.00000000000000000000
14.00000000000000000000  0.00000000000000000000  0.00000000000000000000
13.00000000000000000000  1.00000000000000000000  0.00000000000000000000
14.00000000000000000000  1.00000000000000000000  0.00000000000000000000
14.00000000000000000000  0.00000000000000000000  0.00000000000000000000
15.00000000000000000000  0.00000000000000000000  0.00000000000000000000
14.00000000000000000000  1.00000000000000000000  0.00000000000000000000
15.00000000000000000000  1.00000000000000000000  0.00000000000000000000
15.00000000000000000000  0.00000000000000000000  0.00000000000000000000
16.00000000000000000000  0.00000000000000000000  0.00000000000000000000
15.00000000000000000000  1.00000000000000000000  0.00000000000000000000
16.00000000000000000000  1.00000000000000000000  0.00000000000000000000
16.00000000000000000000  0.00000000000000000000  0.00000000000000000000
17.00000000000000000000  0.00000000000000000000  0.00000000000000000000
16.00000000000000000000  1.00000000000000000000  0.00000000000000000000
17.00000000000000000000  1.00000000000000000000  0.00000000000000000000
17.00000000000000000000  0.00000000000000000000  0.00000000000000000000
18.00000000000000000000  0.00000000000000000000  0.00000000000000000000
17.00000000000000000000  1.00000000000000000000  0.00000000000000000000
18.00000000000000000000  1.00000000000000000000  0.00000000000000000000
18.00000000000000000000  0.00000000000000000000  0.00000000000000000000
19.00000000000000000000  0.00000000000000000000  0.00000000000000000000
18.00000000000000000000  1.00000000000000000000  0.00000000000000000000
19.00000000000000000000  1.00000000000000000000  0.00000000000000000000
19.00000000000000000000  0.00000000000000000000  0.00000000000000000000
20.00000000000000000000  0.00000000000000000000  0.00000000000000000000
19.00000000000000000000  1.00000000000000000000  0.00000000000000000000
20.00000000000000000000  1.00000000000000000000  0.00000000000000000000
0.00000000000000000000  1.00000000000000000000  0.00000000000000000000
1.00000000000000000000  1.00000000000000000000  0.00000000000000000000
0.00000000000000000000  2.00000000000000000000  0.00000000000000000000
1.00000000000000000000  2.00000000000000000000  0.00000000000000000000
1.00000000000000000000  1.00000000000000000000  0.00000000000000000000
2.00000000000000000000  1.00000000000000000000  0.00000000000000000000
1.00000000000000000000  2.00000000000000000000  0.00000000000000000000
2.00000000000000000000  2.00000000000000000000  0.00000000000000000000
2.00000000000000000000  1.00000000000000000000  0.00000000000000000000
3.00000000000000000000  1.00000000000000000000  0.00000000000000000000
2.00000000000000000000  2.00000000000000000000  0.00000000000000000000
3.00000000000000000000  2.00000000000000000000  0.00000000000000000000
3.00000000000000000000  1.00000000000000000000  0.00000000000000000000
4.00000000000000000000  1.00000000000000000000  0.00000000000000000000
3.00000000000000000000  2.00000000000000000000  0.00000000000000000000
4.00000000000000000000  2.00000000000000000000  0.00000000000000000000
4.00000000000000000000  1.00000000000000000000  0.00000000000000000000
5.00000000000000000000  1.00000000000000000000  0.00000000000000000000
4.00000000000000000000  2.00000000000000000000  0.00000000000000000000
5.00000000000000000000  2.00000000000000000000  0.00000000000000000000
5.00000000000000000000  1.00000000000000000000  0.00000000000000000000
6.00000000000000000000  1.00000000000000000000  0.00000000000000000000
5.00000000000000000000  2.00000000000000000000  0.00000000000000000000
6.00000000000000000000  2.00000000000000000000  0.00000000000000000000
6.00000000000000000000  1.00000000000000000000  0.00000000000000000000
7.00000000000000000000  1.00000000000000000000  0.00000000000000000000
6.00000000000000000000  2.00000000000000000000  0.00000000000000000000
7.00000000000000000000  2.00000000000000000000  0.00000000000000000000
7.00000000000000000000  1.00000000000000000000  0.00000000000000000000
8.00000000000000000000  1.00000000000000000000  0.00000000000000000000
7.00000000000000000000  2.00000000000000000000  0.00000000000000000000
8.00000000000000000000  2.00000000000000000000  0.00000000000000000000
8.00000000000000000000  1.00000000000000000000  0.00000000000000000000
9.00000000000000000000  1.00000000000000000000  0.00000000000000000000
8.00000000000000000000  2.00000000000000000000  0.00000000000000000000
9.00000000000000000000  2.00000000000000000000  0.00000000000000000000
9.00000000000000000000  1.00000000000000000000  0.00000000000000000000
10.00000000000000000000  1.00000000000000000000  0.00000000000000000000
9.00000000000000000000  2.00000000000000000000  0.00000000000000000000
10.00000000000000000000  2.00000000000000000000  0.00000000000000000000
10.00000000000000000000  1.00000000000000000000  0.00000000000000000000
11.00000000000000000000  1.00000000000000000000  0.00000000000000000000
10.00000000000000000000  2.00000000000000000000  0.00000000000000000000
11.00000000000000000000  2.00000000000000000000  0.00000000000000000000
11.00000000000000000000  1.00000000000000000000  0.00000000000000000000
12.00000000000000000000  1.00000000000000000000  0.00000000000000000000
11.00000000000000000000  2.00000000000000000000  0.00000000000000000000
12.00000000000000000000  2.00000000000000000000  0.00000000000000000000
12.00000000000000000000  1.00000000000000000000  0.00000000000000000000
13.00000000000000000000  1.00000000000000000000  0.00000000000000000000
12.00000000000000000000  2.00000000000000000000  0.00000000000000000000
13.00000000000000000000  2.00000000000000000000  0.00000000000000000000
13.00000000000000000000  1.00000000000000000000  0.00000000000000000000
14.00000000000000000000  1.00000000000000000000  0.00000000000000000000
13.00000000000000000000  2.00000000000000000000  0.00000000000000000000
14.00000000000000000000  2.00000000000000000000  0.00000000000000000000
14.00000000000000000000  1.00000000000000000000  0.00000000000000000000
15.00000000000000000000  1.00000000000000000000  0.00000000000000000000
14.00000000000000000000  2.00000000000000000000  0.00000000000000000000
15.00000000000000000000  2.00000000000000000000  0.00000000000000000000
15.00000000000000000000  1.00000000000000000000  0.00000000000000000000
16.00000000000000000000  1.00000000000000000000  0.00000000000000000000
15.00000000000000000000  2.00000000000000000000  0.00000000000000000000
16.00000000000000000000  2.00000000000000000000  0.00000000000000000000
16.00000000000000000000  1.00000000000000000000  0.00000000000000000000
17.00000000000000000000  1.00000000000000000000  0.00000000000000000000
16.00000000000000000000  2.00000000000000000000  0.00000000000000000000
17.00000000000000000000  2.00000000000000000000  0.00000000000000000000
17.00000000000000000000  1.00000000000000000000  0.00000000000000000000
18.00000000000000000000  1.00000000000000000000  0.00000000000000000000
17.00000000000000000000  2.00000000000000000000  0.00000000000000000000
18.00000000000000000000  2.00000000000000000000  0.00000000000000000000
18.00000000000000000000  1.00000000000000000000  0.00000000000000000000
19.00000000000000000000  1.00000000000000000000  0.00000000000000000000
18.00000000000000000000  2.00000000000000000000  0.00000000000000000000
19.00000000000000000000  2.00000000000000000000  0.00000000000000000000
19.00000000000000000000  1.00000000000000000000  0.00000000000000000000
20.00000000000000000000  1.00000000000000000000  0.00000000000000000000
19.00000000000000000000  2.00000000000000000000  0.00000000000000000000
20.00000000000000000000  2.00000000000000000000  0.00000000000000000000

CELLS 40 200
4 0 1 3 2 
4 4 5 7 6 
4 8 9 11 10 
4 12 13 15 14 
4 16 17 19 18 
4 20 21 23 22 
4 24 25 27 26 
4 28 29 31 30 
4 32 33 35 34 
4 36 37 39 38 
4 40 41 43 42 
4 44 45 47 46 
4 48 49 51 50 
4 52 53 55 54 
4 56 57 59 58 
4 60 61 63 62 
4 64 65 67 66 
4 68 69 71 70 
4 72 73 75 74 
4 76 77 79 78 
4 80 81 83 82 
4 84 85 87 86 
4 88 89 91 90 
4 92 93 95 94 
4 96 97 99 98 
4 100 101 103 102 
4 104 105 107 106 
4 108 109 111 110 
4 112 113 115 114 
4 116 117 119 118 
4 120 121 123 122 
4 124 125 127 126 
4 128 129 131 130 
4 132 133 135 134 
4 136 137 139 138 
4 140 141 143 142 
4 144 145 147 146 
4 148 149 151 150 
4 152 153 155 154 
4 156 157 159 158 

CELL_TYPES 40
9 9 9 9 9 9 9 9 9 9 9 9 
9 9 9 9 9 9 9 9 9 9 9 9 
9 9 9 9 9 9 9 9 9 9 9 9 
9 9 9 9 

POINT_DATA 160
SCALARS  H  double
LOOKUP_TABLE default
      7.549872924092 
      7.549035442123 
      7.549872924092 
      7.549035442123 
      7.549015117298 
      7.559568642043 
      7.549015117298 
      7.559568642043 
      7.559092806265 
      7.573757171985 
      7.559092806265 
      7.573757171985 
      7.573212193907 
      7.592027696058 
      7.573212193907 
      7.592027696058 
      7.591368400118 
      7.612181328843 
      7.591368400118 
      7.612181328843 
      7.611496740462 
      7.632347181992 
      7.611496740462 
      7.632347181992 
      7.631698559929 
      7.650530269388 
      7.631698559929 
      7.650530269388 
      7.649979774354 
      7.664936287480 
      7.649979774354 
      7.664936287480 
      7.664531918681 
      7.674180665047 
      7.664531918681 
      7.674180665047 
      7.673904280452 
      7.677262599481 
      7.673904280452 
      7.677262599481 
      7.677262599481 
      7.673904280452 
      7.677262599481 
      7.673904280452 
      7.674180665047 
      7.664531918681 
      7.674180665047 
      7.664531918681 
      7.664936287480 
      7.649979774354 
      7.664936287480 
      7.649979774354 
      7.650530269388 
      7.631698559929 
      7.650530269388 
      7.631698559929 
      7.632347181992 
      7.611496740462 
      7.632347181992 
      7.611496740462 
      7.612181328843 
      7.591368400118 
      7.612181328843 
      7.591368400118 
      7.592027696058 
      7.573212193907 
      7.592027696058 
      7.573212193907 
      7.573757171985 
      7.559092806265 
      7.573757171985 
      7.559092806265 
      7.559568642043 
      7.549015117298 
      7.559568642043 
      7.549015117298 
      7.549035442123 
      7.549872924092 
      7.549035442123 
      7.549872924092 
      7.549872924092 
      7.549035442123 
      7.549872924092 
      7.549035442123 
      7.549015117298 
      7.559568642043 
      7.549015117298 
      7.559568642043 
      7.559092806265 
      7.573757171985 
      7.559092806265 
      7.573757171985 
      7.573212193907 
      7.592027696058 
      7.573212193907 
      7.592027696058 
      7.591368400118 
      7.612181328843 
      7.591368400118 
      7.612181328843 
      7.611496740462 
      7.632347181992 
      7.611496740462 
      7.632347181992 
      7.631698559929 
      7.650530269388 
      7.631698559929 
      7.650530269388 
      7.649979774354 
      7.664936287480 
      7.649979774354 
      7.664936287480 
      7.664531918681 
      7.674180665047 
      7.664531918681 
      7.674180665047 
      7.673904280452 
      7.677262599481 
      7.673904280452 
      7.677262599481 
      7.677262599481 
      7.673904280452 
      7.677262599481 
      7.673904280452 
      7.674180665047 
      7.664531918681 
      7.674180665047 
      7.664531918681 
      7.664936287480 
      7.649979774354 
      7.664936287480 
      7.649979774354 
      7.650530269388 
      7.631698559929 
      7.650530269388 
      7.631698559929 
      7.632347181992 
      7.611496740462 
      7.632347181992 
      7.611496740462 
      7.612181328843 
      7.591368400118 
      7.612181328843 
      7.591368400118 
      7.592027696058 
      7.573212193907 
      7.592027696058 
      7.573212193907 
      7.573757171985 
      7.559092806265 
      7.573757171985 
      7.559092806265 
      7.559568642043 
      7.549015117298 
      7.559568642043 
      7.549015117298 
      7.549035442123 
      7.549872924092 
      7.549035442123 
      7.549872924092 
SCALARS  HU  double
LOOKUP_TABLE default
     -0.002807682354 
     -0.124559937129 
     -0.002807682354 
     -0.124559937129 
     -0.130784448130 
     -0.245372757337 
     -0.130784448130 
     -0.245372757337 
     -0.248945271391 
     -0.338308391639 
     -0.248945271391 
     -0.338308391639 
     -0.341274114924 
     -0.398766265181 
     -0.341274114924 
     -0.398766265181 
     -0.400077073947 
     -0.419720005014 
     -0.400077073947 
     -0.419720005014 
     -0.419437669214 
     -0.399587317372 
     -0.419437669214 
     -0.399587317372 
     -0.397708086276 
     -0.340428050652 
     -0.397708086276 
     -0.340428050652 
     -0.337160355878 
     -0.248142423547 
     -0.337160355878 
     -0.248142423547 
     -0.243861404626 
     -0.131724132939 
     -0.243861404626 
     -0.131724132939 
     -0.127368896308 
     -0.002020575648 
     -0.127368896308 
     -0.002020575648 
      0.002020575648 
      0.127368896308 
      0.002020575648 
      0.127368896308 
      0.131724132939 
      0.243861404626 
      0.131724132939 
      0.243861404626 
      0.248142423547 
      0.337160355878 
      0.248142423547 
      0.337160355878 
      0.340428050652 
      0.397708086276 
      0.340428050652 
      0.397708086276 
      0.399587317372 
      0.419437669214 
      0.399587317372 
      0.419437669214 
      0.419720005014 
      0.400077073947 
      0.419720005014 
      0.400077073947 
      0.398766265181 
      0.341274114924 
      0.398766265181 
      0.341274114924 
      0.338308391639 
      0.248945271391 
      0.338308391639 
      0.248945271391 
      0.245372757337 
      0.130784448130 
      0.245372757337 
      0.130784448130 
      0.124559937129 
      0.002807682354 
      0.124559937129 
      0.002807682354 
     -0.002807682354 
     -0.124559937129 
     -0.002807682354 
     -0.124559937129 
     -0.130784448130 
     -0.245372757337 
     -0.130784448130 
     -0.245372757337 
     -0.248945271391 
     -0.338308391639 
     -0.248945271391 
     -0.338308391639 
     -0.341274114924 
     -0.398766265181 
     -0.341274114924 
     -0.398766265181 
     -0.400077073947 
     -0.419720005014 
     -0.400077073947 
     -0.419720005014 
     -0.419437669214 
     -0.399587317372 
     -0.419437669214 
     -0.399587317372 
     -0.397708086276 
     -0.340428050652 
     -0.397708086276 
     -0.340428050652 
     -0.337160355878 
     -0.248142423547 
     -0.337160355878 
     -0.248142423547 
     -0.243861404626 
     -0.131724132939 
     -0.243861404626 
     -0.131724132939 
     -0.127368896308 
     -0.002020575648 
     -0.127368896308 
     -0.002020575648 
      0.002020575648 
      0.127368896308 
      0.002020575648 
      0.127368896308 
      0.131724132939 
      0.243861404626 
      0.131724132939 
      0.243861404626 
      0.248142423547 
      0.337160355878 
      0.248142423547 
      0.337160355878 
      0.340428050652 
      0.397708086276 
      0.340428050652 
      0.397708086276 
      0.399587317372 
      0.419437669214 
      0.399587317372 
      0.419437669214 
      0.419720005014 
      0.400077073947 
      0.419720005014 
      0.400077073947 
      0.398766265181 
      0.341274114924 
      0.398766265181 
      0.341274114924 
      0.338308391639 
      0.248945271391 
      0.338308391639 
      0.248945271391 
      0.245372757337 
      0.130784448130 
      0.245372757337 
      0.130784448130 
      0.124559937129 
      0.002807682354 
      0.124559937129 
      0.002807682354 
SCALARS  HV  double
LOOKUP_TABLE default
      0.000000000000 
     -0.000000000000 
      0.000000000000 
      0.000000000000 
      0.000000000000 
      0.000000000000 
      0.000000000000 
     -0.000000000000 
      0.000000000000 
      0.000000000000 
     -0.000000000000 
     -0.000000000000 
      0.000000000000 
      0.000000000000 
     -0.000000000000 
      0.000000000000 
      0.000000000000 
     -0.000000000000 
      0.000000000000 
      0.000000000000 
     -0.000000000000 
      0.000000000000 
      0.000000000000 
     -0.000000000000 
      0.000000000000 
      0.000000000000 
     -0.000000000000 
     -0.000000000000 
      0.000000000000 
      0.000000000000 
     -0.000000000000 
     -0.000000000000 
     -0.000000000000 
     -0.000000000000 
     -0.000000000000 
     -0.000000000000 
     -0.000000000000 
     -0.000000000000 
     -0.000000000000 
     -0.000000000000 
     -0.000000000000 
      0.000000000000 
     -0.000000000000 
     -0.000000000000 
      0.000000000000 
      0.000000000000 
     -0.000000000000 
     -0.000000000000 
      0.000000000000 
     -0.000000000000 
     -0.000000000000 
     -0.000000000000 
     -0.000000000000 
      0.000000000000 
     -0.000000000000 
     -0.000000000000 
     -0.000000000000 
     -0.000000000000 
     -0.000000000000 
     -0.000000000000 
      0.000000000000 
      0.000000000000 
      0.000000000000 
     -0.000000000000 
      0.000000000000 
      0.000000000000 
     -0.000000000000 
     -0.000000000000 
     -0.000000000000 
     -0.000000000000 
     -0.000000000000 
      0.000000000000 
     -0.000000000000 
      0.000000000000 
      0.000000000000 
     -0.000000000000 
      0.000000000000 
      0.000000000000 
     -0.000000000000 
     -0.000000000000 
      0.000000000000 
      0.000000000000 
      0.000000000000 
      0.000000000000 
      0.000000000000 
      0.000000000000 
      0.000000000000 
      0.000000000000 
      0.000000000000 
      0.000000000000 
      0.000000000000 
     -0.000000000000 
     -0.000000000000 
      0.000000000000 
     -0.000000000000 
      0.000000000000 
     -0.000000000000 
     -0.000000000000 
      0.000000000000 
     -0.000000000000 
      0.000000000000 
      0.000000000000 
      0.000000000000 
     -0.000000000000 
      0.000000000000 
      0.000000000000 
     -0.000000000000 
     -0.000000000000 
      0.000000000000 
      0.000000000000 
      0.000000000000 
      0.000000000000 
      0.000000000000 
     -0.000000000000 
      0.000000000000 
     -0.000000000000 
     -0.000000000000 
     -0.000000000000 
     -0.000000000000 
      0.000000000000 
     -0.000000000000 
     -0.000000000000 
      0.000000000000 
     -0.000000000000 
      0.000000000000 
     -0.000000000000 
     -0.000000000000 
      0.000000000000 
     -0.000000000000 
      0.000000000000 
      0.000000000000 
      0.000000000000 
      0.000000000000 
      0.000000000000 
      0.000000000000 
     -0.000000000000 
      0.000000000000 
     -0.000000000000 
     -0.000000000000 
      0.000000000000 
     -0.000000000000 
     -0.000000000000 
      0.000000000000 
      0.000000000000 
     -0.000000000000 
      0.000000000000 
      0.000000000000 
     -0.000000000000 
      0.000000000000 
     -0.000000000000 
     -0.000000000000 
      0.000000000000 
     -0.000000000000 
      0.000000000000 
     -0.000000000000 
     -0.000000000000 
      0.000000000000 
     -0.000000000000 
     -0.000000000000 
     -0.000000000000 
SCALARS  HW  double
LOOKUP_TABLE default
      0.472544575181 
      0.487568194016 
      0.472544575181 
      0.487568194016 
      0.481684142356 
      0.404228081843 
      0.481684142356 
      0.404228081843 
      0.400319723896 
      0.293671307877 
      0.400319723896 
      0.293671307877 
      0.289940909749 
      0.151197395537 
      0.289940909749 
      0.151197395537 
      0.148779874340 
     -0.005168562776 
      0.148779874340 
     -0.005168562776 
     -0.006152327853 
     -0.160900002833 
     -0.006152327853 
     -0.160900002833 
     -0.160421503136 
     -0.300671669967 
     -0.160421503136 
     -0.300671669967 
     -0.298997336936 
     -0.411000811234 
     -0.298997336936 
     -0.411000811234 
     -0.408547704970 
     -0.481987552624 
     -0.408547704970 
     -0.481987552624 
     -0.479255004421 
     -0.505391006971 
     -0.479255004421 
     -0.505391006971 
     -0.505391006971 
     -0.479255004421 
     -0.505391006971 
     -0.479255004421 
     -0.481987552624 
     -0.408547704970 
     -0.481987552624 
     -0.408547704970 
     -0.411000811234 
     -0.298997336936 
     -0.411000811234 
     -0.298997336936 
     -0.300671669967 
     -0.160421503136 
     -0.300671669967 
     -0.160421503136 
     -0.160900002833 
     -0.006152327853 
     -0.160900002833 
     -0.006152327853 
     -0.005168562776 
      0.148779874340 
     -0.005168562776 
      0.148779874340 
      0.151197395537 
      0.289940909749 
      0.151197395537 
      0.289940909749 
      0.293671307877 
      0.400319723896 
      0.293671307877 
      0.400319723896 
      0.404228081843 
      0.481684142356 
      0.404228081843 
      0.481684142356 
      0.487568194016 
      0.472544575181 
      0.487568194016 
      0.472544575181 
      0.472544575181 
      0.487568194016 
      0.472544575181 
      0.487568194016 
      0.481684142356 
      0.404228081843 
      0.481684142356 
      0.404228081843 
      0.400319723896 
      0.293671307877 
      0.400319723896 
      0.293671307877 
      0.289940909749 
      0.151197395537 
      0.289940909749 
      0.151197395537 
      0.148779874340 
     -0.005168562776 
      0.148779874340 
     -0.005168562776 
     -0.006152327853 
     -0.160900002833 
     -0.006152327853 
     -0.160900002833 
     -0.160421503136 
     -0.300671669967 
     -0.160421503136 
     -0.300671669967 
     -0.298997336936 
     -0.411000811234 
     -0.298997336936 
     -0.411000811234 
     -0.408547704970 
     -0.481987552624 
     -0.408547704970 
     -0.481987552624 
     -0.479255004421 
     -0.505391006971 
     -0.479255004421 
     -0.505391006971 
     -0.505391006971 
     -0.479255004421 
     -0.505391006971 
     -0.479255004421 
     -0.481987552624 
     -0.408547704970 
     -0.481987552624 
     -0.408547704970 
     -0.411000811234 
     -0.298997336936 
     -0.411000811234 
     -0.298997336936 
     -0.300671669967 
     -0.160421503136 
     -0.300671669967 
     -0.160421503136 
     -0.160900002833 
     -0.006152327853 
     -0.160900002833 
     -0.006152327853 
     -0.005168562776 
      0.148779874340 
     -0.005168562776 
      0.148779874340 
      0.151197395537 
      0.289940909749 
      0.151197395537 
      0.289940909749 
      0.293671307877 
      0.400319723896 
      0.293671307877 
      0.400319723896 
      0.404228081843 
      0.481684142356 
      0.404228081843 
      0.481684142356 
      0.487568194016 
      0.472544575181 
      0.487568194016 
      0.472544575181 
SCALARS  q  double
LOOKUP_TABLE default
      0.349625580769 
      0.371882210472 
      0.349625580769 
      0.371882210472 
      0.367257541073 
      0.307525205452 
      0.367257541073 
      0.307525205452 
      0.304407777517 
      0.225915186151 
      0.304407777517 
      0.225915186151 
      0.222547502008 
      0.119928009719 
      0.222547502008 
      0.119928009719 
      0.117108426595 
      0.003197477026 
      0.117108426595 
      0.003197477026 
      0.001103057243 
     -0.113630391604 
      0.001103057243 
     -0.113630391604 
     -0.114773213490 
     -0.219035793079 
     -0.114773213490 
     -0.219035793079 
     -0.219122958256 
     -0.302697524048 
     -0.219122958256 
     -0.302697524048 
     -0.301757190288 
     -0.356809148078 
     -0.301757190288 
     -0.356809148078 
     -0.355088260498 
     -0.374747708113 
     -0.355088260498 
     -0.374747708113 
     -0.374747708113 
     -0.355088260498 
     -0.374747708113 
     -0.355088260498 
     -0.356809148078 
     -0.301757190288 
     -0.356809148078 
     -0.301757190288 
     -0.302697524048 
     -0.219122958256 
     -0.302697524048 
     -0.219122958256 
     -0.219035793079 
     -0.114773213490 
     -0.219035793079 
     -0.114773213490 
     -0.113630391604 
      0.001103057243 
     -0.113630391604 
      0.001103057243 
      0.003197477026 
      0.117108426595 
      0.003197477026 
      0.117108426595 
      0.119928009719 
      0.222547502008 
      0.119928009719 
      0.222547502008 
      0.225915186151 
      0.304407777517 
      0.225915186151 
      0.304407777517 
      0.307525205452 
      0.367257541073 
      0.307525205452 
      0.367257541073 
      0.371882210472 
      0.349625580769 
      0.371882210472 
      0.349625580769 
      0.349625580769 
      0.371882210472 
      0.349625580769 
      0.371882210472 
      0.367257541073 
      0.307525205452 
      0.367257541073 
      0.307525205452 
      0.304407777517 
      0.225915186151 
      0.304407777517 
      0.225915186151 
      0.222547502008 
      0.119928009719 
      0.222547502008 
      0.119928009719 
      0.117108426595 
      0.003197477026 
      0.117108426595 
      0.003197477026 
      0.001103057243 
     -0.113630391604 
      0.001103057243 
     -0.113630391604 
     -0.114773213490 
     -0.219035793079 
     -0.114773213490 
     -0.219035793079 
     -0.219122958256 
     -0.302697524048 
     -0.219122958256 
     -0.302697524048 
     -0.301757190288 
     -0.356809148078 
     -0.301757190288 
     -0.356809148078 
     -0.355088260498 
     -0.374747708113 
     -0.355088260498 
     -0.374747708113 
     -0.374747708113 
     -0.355088260498 
     -0.374747708113 
     -0.355088260498 
     -0.356809148078 
     -0.301757190288 
     -0.356809148078 
     -0.301757190288 
     -0.302697524048 
     -0.219122958256 
     -0.302697524048 
     -0.219122958256 
     -0.219035793079 
     -0.114773213490 
     -0.219035793079 
     -0.114773213490 
     -0.113630391604 
      0.001103057243 
     -0.113630391604 
      0.001103057243 
      0.003197477026 
      0.117108426595 
      0.003197477026 
      0.117108426595 
      0.119928009719 
      0.222547502008 
      0.119928009719 
      0.222547502008 
      0.225915186151 
      0.304407777517 
      0.225915186151 
      0.304407777517 
      0.307525205452 