# vtk DataFile Version 2.0
NDG-FEM NonhydrostaticStandingWave2d Simulation
ASCII
DATASET UNSTRUCTURED_GRID

POINTS 480 double
0.00000000000000000000  0.00000000000000000000  0.00000000000000000000
1.00000000000000000000  0.00000000000000000000  0.00000000000000000000
2.00000000000000000000  0.00000000000000000000  0.00000000000000000000
0.00000000000000000000  1.00000000000000000000  0.00000000000000000000
1.00000000000000000000  1.00000000000000000000  0.00000000000000000000
0.00000000000000000000  2.00000000000000000000  0.00000000000000000000
2.00000000000000000000  0.00000000000000000000  0.00000000000000000000
3.00000000000000000000  0.00000000000000000000  0.00000000000000000000
4.00000000000000000000  0.00000000000000000000  0.00000000000000000000
2.00000000000000000000  1.00000000000000000000  0.00000000000000000000
3.00000000000000000000  1.00000000000000000000  0.00000000000000000000
2.00000000000000000000  2.00000000000000000000  0.00000000000000000000
4.00000000000000000000  0.00000000000000000000  0.00000000000000000000
5.00000000000000000000  0.00000000000000000000  0.00000000000000000000
6.00000000000000000000  0.00000000000000000000  0.00000000000000000000
4.00000000000000000000  1.00000000000000000000  0.00000000000000000000
5.00000000000000000000  1.00000000000000000000  0.00000000000000000000
4.00000000000000000000  2.00000000000000000000  0.00000000000000000000
6.00000000000000000000  0.00000000000000000000  0.00000000000000000000
7.00000000000000000000  0.00000000000000000000  0.00000000000000000000
8.00000000000000000000  0.00000000000000000000  0.00000000000000000000
6.00000000000000000000  1.00000000000000000000  0.00000000000000000000
7.00000000000000000000  1.00000000000000000000  0.00000000000000000000
6.00000000000000000000  2.00000000000000000000  0.00000000000000000000
8.00000000000000000000  0.00000000000000000000  0.00000000000000000000
9.00000000000000000000  0.00000000000000000000  0.00000000000000000000
10.00000000000000000000  0.00000000000000000000  0.00000000000000000000
8.00000000000000000000  1.00000000000000000000  0.00000000000000000000
9.00000000000000000000  1.00000000000000000000  0.00000000000000000000
8.00000000000000000000  2.00000000000000000000  0.00000000000000000000
10.00000000000000000000  0.00000000000000000000  0.00000000000000000000
11.00000000000000000000  0.00000000000000000000  0.00000000000000000000
12.00000000000000000000  0.00000000000000000000  0.00000000000000000000
10.00000000000000000000  1.00000000000000000000  0.00000000000000000000
11.00000000000000000000  1.00000000000000000000  0.00000000000000000000
10.00000000000000000000  2.00000000000000000000  0.00000000000000000000
12.00000000000000000000  0.00000000000000000000  0.00000000000000000000
13.00000000000000000000  0.00000000000000000000  0.00000000000000000000
14.00000000000000000000  0.00000000000000000000  0.00000000000000000000
12.00000000000000000000  1.00000000000000000000  0.00000000000000000000
13.00000000000000000000  1.00000000000000000000  0.00000000000000000000
12.00000000000000000000  2.00000000000000000000  0.00000000000000000000
14.00000000000000000000  0.00000000000000000000  0.00000000000000000000
15.00000000000000000000  0.00000000000000000000  0.00000000000000000000
16.00000000000000000000  0.00000000000000000000  0.00000000000000000000
14.00000000000000000000  1.00000000000000000000  0.00000000000000000000
15.00000000000000000000  1.00000000000000000000  0.00000000000000000000
14.00000000000000000000  2.00000000000000000000  0.00000000000000000000
16.00000000000000000000  0.00000000000000000000  0.00000000000000000000
17.00000000000000000000  0.00000000000000000000  0.00000000000000000000
18.00000000000000000000  0.00000000000000000000  0.00000000000000000000
16.00000000000000000000  1.00000000000000000000  0.00000000000000000000
17.00000000000000000000  1.00000000000000000000  0.00000000000000000000
16.00000000000000000000  2.00000000000000000000  0.00000000000000000000
18.00000000000000000000  0.00000000000000000000  0.00000000000000000000
19.00000000000000000000  0.00000000000000000000  0.00000000000000000000
20.00000000000000000000  0.00000000000000000000  0.00000000000000000000
18.00000000000000000000  1.00000000000000000000  0.00000000000000000000
19.00000000000000000000  1.00000000000000000000  0.00000000000000000000
18.00000000000000000000  2.00000000000000000000  0.00000000000000000000
2.00000000000000000000  0.00000000000000000000  0.00000000000000000000
2.00000000000000000000  1.00000000000000000000  0.00000000000000000000
2.00000000000000000000  2.00000000000000000000  0.00000000000000000000
1.00000000000000000000  1.00000000000000000000  0.00000000000000000000
1.00000000000000000000  2.00000000000000000000  0.00000000000000000000
0.00000000000000000000  2.00000000000000000000  0.00000000000000000000
4.00000000000000000000  0.00000000000000000000  0.00000000000000000000
4.00000000000000000000  1.00000000000000000000  0.00000000000000000000
4.00000000000000000000  2.00000000000000000000  0.00000000000000000000
3.00000000000000000000  1.00000000000000000000  0.00000000000000000000
3.00000000000000000000  2.00000000000000000000  0.00000000000000000000
2.00000000000000000000  2.00000000000000000000  0.00000000000000000000
6.00000000000000000000  0.00000000000000000000  0.00000000000000000000
6.00000000000000000000  1.00000000000000000000  0.00000000000000000000
6.00000000000000000000  2.00000000000000000000  0.00000000000000000000
5.00000000000000000000  1.00000000000000000000  0.00000000000000000000
5.00000000000000000000  2.00000000000000000000  0.00000000000000000000
4.00000000000000000000  2.00000000000000000000  0.00000000000000000000
8.00000000000000000000  0.00000000000000000000  0.00000000000000000000
8.00000000000000000000  1.00000000000000000000  0.00000000000000000000
8.00000000000000000000  2.00000000000000000000  0.00000000000000000000
7.00000000000000000000  1.00000000000000000000  0.00000000000000000000
7.00000000000000000000  2.00000000000000000000  0.00000000000000000000
6.00000000000000000000  2.00000000000000000000  0.00000000000000000000
10.00000000000000000000  0.00000000000000000000  0.00000000000000000000
10.00000000000000000000  1.00000000000000000000  0.00000000000000000000
10.00000000000000000000  2.00000000000000000000  0.00000000000000000000
9.00000000000000000000  1.00000000000000000000  0.00000000000000000000
9.00000000000000000000  2.00000000000000000000  0.00000000000000000000
8.00000000000000000000  2.00000000000000000000  0.00000000000000000000
12.00000000000000000000  0.00000000000000000000  0.00000000000000000000
12.00000000000000000000  1.00000000000000000000  0.00000000000000000000
12.00000000000000000000  2.00000000000000000000  0.00000000000000000000
11.00000000000000000000  1.00000000000000000000  0.00000000000000000000
11.00000000000000000000  2.00000000000000000000  0.00000000000000000000
10.00000000000000000000  2.00000000000000000000  0.00000000000000000000
14.00000000000000000000  0.00000000000000000000  0.00000000000000000000
14.00000000000000000000  1.00000000000000000000  0.00000000000000000000
14.00000000000000000000  2.00000000000000000000  0.00000000000000000000
13.00000000000000000000  1.00000000000000000000  0.00000000000000000000
13.00000000000000000000  2.00000000000000000000  0.00000000000000000000
12.00000000000000000000  2.00000000000000000000  0.00000000000000000000
16.00000000000000000000  0.00000000000000000000  0.00000000000000000000
16.00000000000000000000  1.00000000000000000000  0.00000000000000000000
16.00000000000000000000  2.00000000000000000000  0.00000000000000000000
15.00000000000000000000  1.00000000000000000000  0.00000000000000000000
15.00000000000000000000  2.00000000000000000000  0.00000000000000000000
14.00000000000000000000  2.00000000000000000000  0.00000000000000000000
18.00000000000000000000  0.00000000000000000000  0.00000000000000000000
18.00000000000000000000  1.00000000000000000000  0.00000000000000000000
18.00000000000000000000  2.00000000000000000000  0.00000000000000000000
17.00000000000000000000  1.00000000000000000000  0.00000000000000000000
17.00000000000000000000  2.00000000000000000000  0.00000000000000000000
16.00000000000000000000  2.00000000000000000000  0.00000000000000000000
20.00000000000000000000  0.00000000000000000000  0.00000000000000000000
20.00000000000000000000  1.00000000000000000000  0.00000000000000000000
20.00000000000000000000  2.00000000000000000000  0.00000000000000000000
19.00000000000000000000  1.00000000000000000000  0.00000000000000000000
19.00000000000000000000  2.00000000000000000000  0.00000000000000000000
18.00000000000000000000  2.00000000000000000000  0.00000000000000000000
0.00000000000000000000  2.00000000000000000000  0.00000000000000000000
1.00000000000000000000  2.00000000000000000000  0.00000000000000000000
2.00000000000000000000  2.00000000000000000000  0.00000000000000000000
0.00000000000000000000  3.00000000000000000000  0.00000000000000000000
1.00000000000000000000  3.00000000000000000000  0.00000000000000000000
0.00000000000000000000  4.00000000000000000000  0.00000000000000000000
2.00000000000000000000  2.00000000000000000000  0.00000000000000000000
3.00000000000000000000  2.00000000000000000000  0.00000000000000000000
4.00000000000000000000  2.00000000000000000000  0.00000000000000000000
2.00000000000000000000  3.00000000000000000000  0.00000000000000000000
3.00000000000000000000  3.00000000000000000000  0.00000000000000000000
2.00000000000000000000  4.00000000000000000000  0.00000000000000000000
4.00000000000000000000  2.00000000000000000000  0.00000000000000000000
5.00000000000000000000  2.00000000000000000000  0.00000000000000000000
6.00000000000000000000  2.00000000000000000000  0.00000000000000000000
4.00000000000000000000  3.00000000000000000000  0.00000000000000000000
5.00000000000000000000  3.00000000000000000000  0.00000000000000000000
4.00000000000000000000  4.00000000000000000000  0.00000000000000000000
[...]
POINT_DATA 480
SCALARS  H  double
LOOKUP_TABLE default
      7.513235465842 
      7.517981154669 
      7.532093581276 
      7.513232848314 
      7.517990229899 
      7.513229243089 
      7.532019522904 
      7.553917493712 
      7.581509491358 
      7.532029289984 
      7.553887225095 
      7.532040670138 
      7.581342995010 
      7.612026714793 
      7.642582522304 
      7.581408449048 
      7.611973497082 
      7.581409191218 
      7.642384167338 
      7.670124671854 
      7.691975914403 
      7.642476270349 
      7.670070190058 
      7.642466488355 
      7.691823371749 
      7.706019943171 
      7.710817207487 
      7.691904766506 
      7.705987539736 
      7.691888016578 
      7.710782863179 
      7.705998987291 
      7.691914650745 
      7.710816752622 
      7.706004823860 
      7.710800629675 
      7.692014030464 
      7.670071969106 
      7.642492441037 
      7.691985582425 
      7.670111747012 
      7.691976150511 
      7.642674056689 
      7.611965877325 
      7.581425252183 
      7.642597565553 
      7.612020587619 
      7.642599957785 
      7.581607747865 
      7.553874868200 
      7.532035485155 
      7.581520136778 
      7.553921016852 
      7.581533362812 
      7.532150804123 
      7.517987984328 
      7.513237291947 
      7.532090893000 
      7.517994074258 
      7.532112956952 
      7.532068216404 
      7.532078919840 
      7.532101614936 
      7.517995616833 
      7.517990346279 
      7.513215074433 
      7.581438618270 
      7.581500630345 
      7.581518991453 
      7.553906369696 
      7.553908264780 
      7.531979880153 
      7.642490211243 
      7.642576989505 
      7.642584140987 
      7.611999813119 
      7.612010013822 
      7.581321519736 
      7.691897501041 
      7.691973045325 
      7.691964998531 
      7.670093917205 
      7.670108191382 
      7.642385170527 
      7.710788306757 
      7.710819275968 
      7.710798439555 
      7.705997651785 
      7.706010186200 
      7.691851579031 
      7.691949615780 
      7.691920454266 
      7.691897944024 
      7.705996204010 
      7.706000153271 
      7.710826833296 
      7.642573743109 
      7.642497518166 
      7.642483601743 
      7.670091007340 
      7.670084428538 
      7.692050733449 
      7.581513456678 
      7.581426113248 
      7.581426560549 
      7.611997310768 
      7.611983490696 
      7.642687930421 
      7.532097585812 
      7.532038060785 
      7.532056312618 
      7.553903890905 
      7.553888115475 
      7.581601091350 
      7.513252182064 
      7.513237222602 
      7.513246053630 
      7.517989199530 
      7.517983866060 
      7.532137084382 
      7.513234547590 
      7.517984035345 
      7.532128079665 
      7.513238872734 
      7.517984430768 
      7.513237777220 
      7.532045347441 
      7.553887325538 
      7.581589828029 
      7.532041514395 
      7.553889530224 
      7.532047077779 
      7.581413406781 
      7.611981404730 
      7.642675116335 
      7.581419533957 
      7.611984273831 
      7.581416990735 
      7.642469486566 
      7.670082469339 
      7.692041370699 
      7.642482065762 
      7.670085085004 
      7.642472911068 
      7.691888964369 
      7.705999130609 
      7.710824662102 
      7.691902518712 
      7.706000499704 
      7.691890118792 
      7.710798513981 
      7.706010543565 
      7.691858540403 
      7.710807017630 
      7.706009990169 
      7.710797051357 
      7.691973712690 
      7.670109520035 
      7.642399915811 
      7.691972968103 
      7.670107675497 
      7.691969499944 
      7.642597445430 
      7.612011673477 
      7.581337249531 
      7.642588053294 
      7.612009414330 
      7.642593237568 
      7.581530639686 
      7.553909195305 
      7.531993569605 
      7.581517859932 
      7.553907756786 
      7.581528659196 
      7.532111267234 
      7.517989866042 
      7.513227297897 
      7.532094854881 
      7.517989577950 
      7.532109396431 
      7.532104309395 
      7.532094656753 
      7.532106399088 
      7.517989183547 
      7.517990019189 
      7.513224375795 
      7.581521747684 
      7.581517256262 
      7.581526289093 
      7.553907730562 
      7.553909594545 
      7.531987294705 
      7.642586604552 
      7.642587953073 
      7.642591706003 
      7.612009116028 
      7.612011719684 
      7.581330665941 
      7.691966109098 
      7.691973030711 
      7.691969550482 
      7.670107212245 
      7.670109966660 
      7.642392496529 
      7.710798148176 
      7.710807336215 
      7.710797649333 
      7.706009642108 
      7.706011137830 
      7.691853747566 
      7.691895702814 
      7.691902894531 
      7.691891605206 
      7.706000394380 
      7.705999780770 
      7.710824134987 
      7.642480668856 
      7.642482171667 
      7.642475163733 
      7.670085419510 
      7.670082983692 
      7.692044559545 
      7.581423341791 
      7.581419742398 
      7.581419841445 
      7.611984790537 
      7.611981544505 
      7.642680783379 
      7.532052855712 
      7.532041451638 
      7.532050068196 
      7.553889999851 
      7.553887397948 
      7.581595413874 
      7.513240018830 
      7.513239090710 
      7.513242377270 
      7.517985256822 
      7.517983449736 
      7.532131977013 
      7.513242377270 
      7.517983449736 
      7.532131977013 
      7.513239090710 
      7.517985256822 
      7.513240018830 
      7.532050068196 
      7.553887397948 
      7.581595413874 
      7.532041451638 
      7.553889999851 
      7.532052855712 
      7.581419841445 
      7.611981544505 
      7.642680783379 
      7.581419742398 
      7.611984790537 
      7.581423341791 
      7.642475163733 
      7.670082983692 
      7.692044559545 
      7.642482171667 
      7.670085419510 
      7.642480668856 
      7.691891605206 
      7.705999780770 
      7.710824134987 
      7.691902894531 
      7.706000394380 
      7.691895702814 
      7.710797649333 
      7.706011137830 
      7.691853747566 
      7.710807336215 
      7.706009642108 
      7.710798148176 
      7.691969550482 
      7.670109966660 
      7.642392496529 
      7.691973030711 
      7.670107212245 
      7.691966109098 
      7.642591706003 
      7.612011719684 
      7.581330665941 
      7.642587953073 
      7.612009116028 
      7.642586604552 
      7.581526289093 
      7.553909594545 
      7.531987294705 
      7.581517256262 
      7.553907730562 
      7.581521747684 
      7.532106399088 
      7.517990019189 
      7.513224375795 
      7.532094656753 
      7.517989183547 
      7.532104309395 
      7.532109396431 
      7.532094854881 
      7.532111267234 
      7.517989577950 
      7.517989866042 
      7.513227297897 
      7.581528659196 
      7.581517859932 
      7.581530639686 
      7.553907756786 
      7.553909195305 
      7.531993569605 
      7.642593237568 
      7.642588053294 
      7.642597445430 
      7.612009414330 
      7.612011673477 
      7.581337249531 
      7.691969499944 
      7.691972968103 
      7.691973712690 
      7.670107675497 
      7.670109520035 
      7.642399915811 
      7.710797051357 
      7.710807017630 
      7.710798513981 
      7.706009990169 
      7.706010543565 
      7.691858540403 
      7.691890118792 
      7.691902518712 
      7.691888964369 
      7.706000499704 
      7.705999130609 
      7.710824662102 
      7.642472911068 
      7.642482065762 
      7.642469486566 
      7.670085085004 
      7.670082469339 
      7.692041370699 
      7.581416990735 
      7.581419533957 
      7.581413406781 
      7.611984273831 
      7.611981404730 
      7.642675116335 
      7.532047077779 
      7.532041514395 
      7.532045347441 
      7.553889530224 
      7.553887325538 
      7.581589828029 
      7.513237777220 
      7.513238872734 
      7.513234547590 
      7.517984430768 
      7.517984035345 
      7.532128079665 
      7.513246053630 
      7.517983866060 
      7.532137084382 
      7.513237222602 
      7.517989199530 
      7.513252182064 
      7.532056312618 
      7.553888115475 
      7.581601091350 
      7.532038060785 
      7.553903890905 
      7.532097585812 
      7.581426560549 
      7.611983490696 
      7.642687930421 
      7.581426113248 
      7.611997310768 
      7.581513456678 
      7.642483601743 
      7.670084428538 
      7.692050733449 
      7.642497518166 
      7.670091007340 
      7.642573743109 
      7.691897944024 
      7.706000153271 
      7.710826833296 
      7.691920454266 
      7.705996204010 
      7.691949615780 
      7.710798439555 
      7.706010186200 
      7.691851579031 
      7.710819275968 
      7.705997651785 
      7.710788306757 
      7.691964998531 
      7.670108191382 
      7.642385170527 
      7.691973045325 
      7.670093917205 
      7.691897501041 
      7.642584140987 
      7.612010013822 
      7.581321519736 
      7.642576989505 
      7.611999813119 
      7.642490211243 
      7.581518991453 
      7.553908264780 
      7.531979880153 
      7.581500630345 
      7.553906369696 
      7.581438618270 
      7.532101614936 
      7.517990346279 
      7.513215074433 
      7.532078919840 
      7.517995616833 
      7.532068216404 
      7.532112956952 
      7.532090893000 
      7.532150804123 
      7.517994074258 
      7.517987984328 
      7.513237291947 
      7.581533362812 
      7.581520136778 
      7.581607747865 
      7.553921016852 
      7.553874868200 
      7.532035485155 
      7.642599957785 
      7.642597565553 
      7.642674056689 
      7.612020587619 
      7.611965877325 
      7.581425252183 
      7.691976150511 
      7.691985582425 
      7.692014030464 
      7.670111747012 
      7.670071969106 
      7.642492441037 
      7.710800629675 
      7.710816752622 
      7.710782863179 
      7.706004823860 
      7.705998987291 
      7.691914650745 
      7.691888016578 
      7.691904766506 
      7.691823371749 
      7.705987539736 
      7.706019943171 
      7.710817207487 
      7.642466488355 
      7.642476270349 
      7.642384167338 
      7.670070190058 
      7.670124671854 
      7.691975914403 
      7.581409191218 
      7.581408449048 
      7.581342995010 
      7.611973497082 
      7.612026714793 
      7.642582522304 
      7.532040670138 
      7.532029289984 
      7.532019522904 
      7.553887225095 
      7.553917493712 
      7.581509491358 
      7.513229243089 
      7.513232848314 
      7.513235465842 
      7.517990229899 
      7.517981154669 
      7.532093581276 
SCALARS  HU  double
LOOKUP_TABLE default
     -0.000002080518 
     -0.026066822655 
     -0.050208680460 
     -0.000007220841 
     -0.026090621674 
      0.000017002849 
     -0.049912160442 
     -0.068096522324 
     -0.081296457103 
     -0.049964645990 
     -0.068190333472 
     -0.049892365496 
     -0.080634862723 
     -0.084043362198 
     -0.081342821226 
     -0.080788332856 
     -0.084210364440 
     -0.080728620300 
     -0.080536000593 
     -0.067893959118 
     -0.050326600000 
     -0.080731844304 
     -0.068070146164 
     -0.080703649510 
     -0.049679030599 
     -0.025859294761 
     -0.000078654520 
     -0.049842571485 
     -0.025976589899 
     -0.049854093555 
      0.000121927792 
      0.026001552856 
      0.050263355841 
      0.000072387345 
      0.026007325562 
      0.000010825652 
      0.049875257673 
      0.067948370875 
      0.081429298768 
      0.049937214774 
      0.068090746371 
      0.049860841107 
      0.080589819631 
      0.084015248256 
      0.081425074160 
      0.080725077547 
      0.084216751102 
      0.080682226475 
      0.080561992039 
      0.068008883508 
      0.050301386410 
      0.080711058517 
      0.068186565226 
      0.080704470098 
      0.049750062658 
      0.026016045644 
      0.000006399869 
      0.049850682559 
      0.026115612606 
      0.049865033631 
     -0.049924356109 
     -0.049891664666 
     -0.049903797854 
     -0.026144729054 
     -0.026094656336 
      0.000141275684 
     -0.080784157374 
     -0.080752293410 
     -0.080845476775 
     -0.068246058032 
     -0.068107396250 
     -0.049951415686 
     -0.080781935322 
     -0.080759161042 
     -0.080894978004 
     -0.084240260039 
     -0.084060087059 
     -0.080956739612 
     -0.049938840503 
     -0.049939006344 
     -0.050062343099 
     -0.068062459628 
     -0.067907988013 
     -0.081017311205 
     -0.000034124256 
     -0.000037325477 
     -0.000108139009 
     -0.025939891121 
     -0.025883067541 
     -0.050099283397 
      0.049899127790 
      0.049889791939 
      0.049906670468 
      0.026066144521 
      0.025996300416 
     -0.000074316402 
      0.080795169302 
      0.080765850644 
      0.080891345492 
      0.068155008065 
      0.067982788321 
      0.049949434565 
      0.080829926669 
      0.080802283805 
      0.080962325453 
      0.084250879732 
      0.084058000358 
      0.080907296036 
      0.049975286010 
      0.049954171476 
      0.050071620829 
      0.068179459423 
      0.068043104593 
      0.080975181020 
      0.000023707521 
     -0.000006128717 
      0.000018591914 
      0.026076182416 
      0.026017247557 
      0.050071528656 
      0.000010730530 
     -0.026037258447 
     -0.050109399856 
     -0.000001580743 
     -0.026059434406 
      0.000018467623 
     -0.049994381191 
     -0.068062057878 
     -0.081052086558 
     -0.050011262599 
     -0.068118355188 
     -0.049915301798 
     -0.080861013663 
     -0.084054108776 
     -0.081015236309 
     -0.080884941132 
     -0.084129359367 
     -0.080761649725 
     -0.080807761218 
     -0.067945533109 
     -0.050046260087 
     -0.080837655700 
     -0.068015536035 
     -0.080734409433 
     -0.049877158412 
     -0.025939762089 
      0.000036620346 
     -0.049910451976 
     -0.025972853488 
     -0.049870429790 
      0.000077502550 
      0.025933304899 
      0.050138366246 
      0.000071915048 
      0.025953214636 
      0.000017571242 
      0.049990351954 
      0.067930530525 
      0.081117427293 
      0.050007082489 
      0.067997464084 
      0.049887004213 
      0.080815675257 
      0.084046502018 
      0.081079317498 
      0.080834034546 
      0.084128170843 
      0.080712334718 
      0.080791052050 
      0.068073890161 
      0.050051884008 
      0.080801310535 
      0.068138287426 
      0.080725306822 
      0.049883866290 
      0.026062408861 
     -0.000092771338 
      0.049900623041 
      0.026092966658 
      0.049882111490 
     -0.049887545477 
     -0.049907274196 
     -0.049896636753 
     -0.026099224011 
     -0.026068085788 
      0.000106796528 
     -0.080731200076 
     -0.080803668386 
     -0.080815505726 
     -0.068146059803 
     -0.068081381674 
     -0.050028980740 
     -0.080715687475 
     -0.080827047593 
     -0.080852831433 
     -0.084131011577 
     -0.084047918475 
     -0.081047572593 
     -0.049886474876 
     -0.049995823519 
     -0.050024448680 
     -0.067989834340 
     -0.067917819444 
     -0.081086459118 
     -0.000014768552 
     -0.000061262343 
     -0.000091390975 
     -0.025936168259 
     -0.025911263418 
     -0.050120197251 
      0.049872035233 
      0.049915078602 
      0.049887405527 
      0.025992996633 
      0.025961502152 
     -0.000035630050 
      0.080736137502 
      0.080835212648 
      0.080837060459 
      0.068030522954 
      0.067958421844 
      0.050030792497 
      0.080764765798 
      0.080877465069 
      0.080897050510 
      0.084134322440 
      0.084054168162 
      0.080988515485 
      0.049917386927 
      0.050004445790 
      0.050024984906 
      0.068115827587 
      0.068051315917 
      0.081024238362 
     -0.000012707628 
      0.000002064401 
      0.000001905382 
      0.026054913229 
      0.026024629680 
      0.050090960367 
     -0.000001905382 
     -0.026024629680 
     -0.050090960367 
     -0.000002064401 
     -0.026054913229 
      0.000012707628 
     -0.050024984906 
     -0.068051315917 
     -0.081024238362 
     -0.050004445790 
     -0.068115827587 
     -0.049917386927 
     -0.080897050510 
     -0.084054168162 
     -0.080988515485 
     -0.080877465069 
     -0.084134322440 
     -0.080764765798 
     -0.080837060459 
     -0.067958421844 
     -0.050030792497 
     -0.080835212648 
     -0.068030522954 
     -0.080736137502 
     -0.049887405527 
     -0.025961502152 
      0.000035630050 
     -0.049915078602 
     -0.025992996633 
     -0.049872035233 
      0.000091390975 
      0.025911263418 
      0.050120197251 
      0.000061262343 
      0.025936168259 
      0.000014768552 
      0.050024448680 
      0.067917819444 
      0.081086459118 
      0.049995823519 
      0.067989834340 
      0.049886474876 
      0.080852831433 
      0.084047918475 
      0.081047572593 
      0.080827047593 
      0.084131011577 
      0.080715687475 
      0.080815505726 
      0.068081381674 
      0.050028980740 
      0.080803668386 
      0.068146059803 
      0.080731200076 
      0.049896636753 
      0.026068085788 
     -0.000106796528 
      0.049907274196 
      0.026099224011 
      0.049887545477 
     -0.049882111490 
     -0.049900623041 
     -0.049883866290 
     -0.026092966658 
     -0.026062408861 
      0.000092771338 
     -0.080725306822 
     -0.080801310535 
     -0.080791052050 
     -0.068138287426 
     -0.068073890161 
     -0.050051884008 
     -0.080712334718 
     -0.080834034546 
     -0.080815675257 
     -0.084128170843 
     -0.084046502018 
     -0.081079317498 
     -0.049887004213 
     -0.050007082489 
     -0.049990351954 
     -0.067997464084 
     -0.067930530525 
     -0.081117427293 
     -0.000017571242 
     -0.000071915048 
     -0.000077502550 
     -0.025953214636 
     -0.025933304899 
     -0.050138366246 
      0.049870429790 
      0.049910451976 
      0.049877158412 
      0.025972853488 
      0.025939762089 
     -0.000036620346 
      0.080734409433 
      0.080837655700 
      0.080807761218 
      0.068015536035 
      0.067945533109 
      0.050046260087 
      0.080761649725 
      0.080884941132 
      0.080861013663 
      0.084129359367 
      0.084054108776 
      0.081015236309 
      0.049915301798 
      0.050011262599 
      0.049994381191 
      0.068118355188 
      0.068062057878 
      0.081052086558 
     -0.000018467623 
      0.000001580743 
     -0.000010730530 
      0.026059434406 
      0.026037258447 
      0.050109399856 
     -0.000018591914 
     -0.026017247557 
     -0.050071528656 
      0.000006128717 
     -0.026076182416 
     -0.000023707521 
     -0.050071620829 
     -0.068043104593 
     -0.080975181020 
     -0.049954171476 
     -0.068179459423 
     -0.049975286010 
     -0.080962325453 
     -0.084058000358 
     -0.080907296036 
     -0.080802283805 
     -0.084250879732 
     -0.080829926669 
     -0.080891345492 
     -0.067982788321 
     -0.049949434565 
     -0.080765850644 
     -0.068155008065 
     -0.080795169302 
     -0.049906670468 
     -0.025996300416 
      0.000074316402 
     -0.049889791939 
     -0.026066144521 
     -0.049899127790 
      0.000108139009 
      0.025883067541 
      0.050099283397 
      0.000037325477 
      0.025939891121 
      0.000034124256 
      0.050062343099 
      0.067907988013 
      0.081017311205 
      0.049939006344 
      0.068062459628 
      0.049938840503 
      0.080894978004 
      0.084060087059 
      0.080956739612 
      0.080759161042 
      0.084240260039 
      0.080781935322 
      0.080845476775 
      0.068107396250 
      0.049951415686 
      0.080752293410 
      0.068246058032 
      0.080784157374 
      0.049903797854 
      0.026094656336 
     -0.000141275684 
      0.049891664666 
      0.026144729054 
      0.049924356109 
     -0.049865033631 
     -0.049850682559 
     -0.049750062658 
     -0.026115612606 