# vtk DataFile Version 2.0
NDG-FEM NonhydrostaticStandingWave2d Simulation
ASCII
DATASET UNSTRUCTURED_GRID

POINTS 1800 double
0.00000000000000000000  0.00000000000000000000  0.00000000000000000000
1.00000000000000000000  0.00000000000000000000  0.00000000000000000000
2.00000000000000000000  0.00000000000000000000  0.00000000000000000000
0.00000000000000000000  1.00000000000000000000  0.00000000000000000000
1.00000000000000000000  1.00000000000000000000  0.00000000000000000000
0.00000000000000000000  2.00000000000000000000  0.00000000000000000000
2.00000000000000000000  0.00000000000000000000  0.00000000000000000000
3.00000000000000000000  0.00000000000000000000  0.00000000000000000000
4.00000000000000000000  0.00000000000000000000  0.00000000000000000000
2.00000000000000000000  1.00000000000000000000  0.00000000000000000000
3.00000000000000000000  1.00000000000000000000  0.00000000000000000000
2.00000000000000000000  2.00000000000000000000  0.00000000000000000000
4.00000000000000000000  0.00000000000000000000  0.00000000000000000000
5.00000000000000000000  0.00000000000000000000  0.00000000000000000000
6.00000000000000000000  0.00000000000000000000  0.00000000000000000000
4.00000000000000000000  1.00000000000000000000  0.00000000000000000000
5.00000000000000000000  1.00000000000000000000  0.00000000000000000000
4.00000000000000000000  2.00000000000000000000  0.00000000000000000000
6.00000000000000000000  0.00000000000000000000  0.00000000000000000000
7.00000000000000000000  0.00000000000000000000  0.00000000000000000000
8.00000000000000000000  0.00000000000000000000  0.00000000000000000000
6.00000000000000000000  1.00000000000000000000  0.00000000000000000000
7.00000000000000000000  1.00000000000000000000  0.00000000000000000000
6.00000000000000000000  2.00000000000000000000  0.00000000000000000000
8.00000000000000000000  0.00000000000000000000  0.00000000000000000000
9.00000000000000000000  0.00000000000000000000  0.00000000000000000000
10.00000000000000000000  0.00000000000000000000  0.00000000000000000000
8.00000000000000000000  1.00000000000000000000  0.00000000000000000000
9.00000000000000000000  1.00000000000000000000  0.00000000000000000000
8.00000000000000000000  2.00000000000000000000  0.00000000000000000000
10.00000000000000000000  0.00000000000000000000  0.00000000000000000000
11.00000000000000000000  0.00000000000000000000  0.00000000000000000000
12.00000000000000000000  0.00000000000000000000  0.00000000000000000000
10.00000000000000000000  1.00000000000000000000  0.00000000000000000000
11.00000000000000000000  1.00000000000000000000  0.00000000000000000000
10.00000000000000000000  2.00000000000000000000  0.00000000000000000000
12.00000000000000000000  0.00000000000000000000  0.00000000000000000000
13.00000000000000000000  0.00000000000000000000  0.00000000000000000000
14.00000000000000000000  0.00000000000000000000  0.00000000000000000000
12.00000000000000000000  1.00000000000000000000  0.00000000000000000000
13.00000000000000000000  1.00000000000000000000  0.00000000000000000000
12.00000000000000000000  2.00000000000000000000  0.00000000000000000000
14.00000000000000000000  0.00000000000000000000  0.00000000000000000000
15.00000000000000000000  0.00000000000000000000  0.00000000000000000000
16.00000000000000000000  0.00000000000000000000  0.00000000000000000000
14.00000000000000000000  1.00000000000000000000  0.00000000000000000000
15.00000000000000000000  1.00000000000000000000  0.00000000000000000000
14.00000000000000000000  2.00000000000000000000  0.00000000000000000000
16.00000000000000000000  0.00000000000000000000  0.00000000000000000000
17.00000000000000000000  0.00000000000000000000  0.00000000000000000000
18.00000000000000000000  0.00000000000000000000  0.00000000000000000000
16.00000000000000000000  1.00000000000000000000  0.00000000000000000000
17.00000000000000000000  1.00000000000000000000  0.00000000000000000000
16.00000000000000000000  2.00000000000000000000  0.00000000000000000000
18.00000000000000000000  0.00000000000000000000  0.00000000000000000000
19.00000000000000000000  0.00000000000000000000  0.00000000000000000000
20.00000000000000000000  0.00000000000000000000  0.00000000000000000000
18.00000000000000000000  1.00000000000000000000  0.00000000000000000000
19.00000000000000000000  1.00000000000000000000  0.00000000000000000000
18.00000000000000000000  2.00000000000000000000  0.00000000000000000000
20.00000000000000000000  0.00000000000000000000  0.00000000000000000000
21.00000000000000000000  0.00000000000000000000  0.00000000000000000000
22.00000000000000000000  0.00000000000000000000  0.00000000000000000000
20.00000000000000000000  1.00000000000000000000  0.00000000000000000000
21.00000000000000000000  1.00000000000000000000  0.00000000000000000000
20.00000000000000000000  2.00000000000000000000  0.00000000000000000000
22.00000000000000000000  0.00000000000000000000  0.00000000000000000000
23.00000000000000000000  0.00000000000000000000  0.00000000000000000000
24.00000000000000000000  0.00000000000000000000  0.00000000000000000000
22.00000000000000000000  1.00000000000000000000  0.00000000000000000000
23.00000000000000000000  1.00000000000000000000  0.00000000000000000000
22.00000000000000000000  2.00000000000000000000  0.00000000000000000000
24.00000000000000000000  0.00000000000000000000  0.00000000000000000000
25.00000000000000000000  0.00000000000000000000  0.00000000000000000000
26.00000000000000000000  0.00000000000000000000  0.00000000000000000000
24.00000000000000000000  1.00000000000000000000  0.00000000000000000000
25.00000000000000000000  1.00000000000000000000  0.00000000000000000000
24.00000000000000000000  2.00000000000000000000  0.00000000000000000000
26.00000000000000000000  0.00000000000000000000  0.00000000000000000000
27.00000000000000000000  0.00000000000000000000  0.00000000000000000000
28.00000000000000000000  0.00000000000000000000  0.00000000000000000000
26.00000000000000000000  1.00000000000000000000  0.00000000000000000000
27.00000000000000000000  1.00000000000000000000  0.00000000000000000000
26.00000000000000000000  2.00000000000000000000  0.00000000000000000000
28.00000000000000000000  0.00000000000000000000  0.00000000000000000000
29.00000000000000000000  0.00000000000000000000  0.00000000000000000000
30.00000000000000000000  0.00000000000000000000  0.00000000000000000000
28.00000000000000000000  1.00000000000000000000  0.00000000000000000000
29.00000000000000000000  1.00000000000000000000  0.00000000000000000000
28.00000000000000000000  2.00000000000000000000  0.00000000000000000000
30.00000000000000000000  0.00000000000000000000  0.00000000000000000000
31.00000000000000000000  0.00000000000000000000  0.00000000000000000000
32.00000000000000000000  0.00000000000000000000  0.00000000000000000000
30.00000000000000000000  1.00000000000000000000  0.00000000000000000000
31.00000000000000000000  1.00000000000000000000  0.00000000000000000000
30.00000000000000000000  2.00000000000000000000  0.00000000000000000000
32.00000000000000000000  0.00000000000000000000  0.00000000000000000000
33.00000000000000000000  0.00000000000000000000  0.00000000000000000000
34.00000000000000000000  0.00000000000000000000  0.00000000000000000000
32.00000000000000000000  1.00000000000000000000  0.00000000000000000000
33.00000000000000000000  1.00000000000000000000  0.00000000000000000000
32.00000000000000000000  2.00000000000000000000  0.00000000000000000000
34.00000000000000000000  0.00000000000000000000  0.00000000000000000000
35.00000000000000000000  0.00000000000000000000  0.00000000000000000000
36.00000000000000000000  0.00000000000000000000  0.00000000000000000000
34.00000000000000000000  1.00000000000000000000  0.00000000000000000000
35.00000000000000000000  1.00000000000000000000  0.00000000000000000000
34.00000000000000000000  2.00000000000000000000  0.00000000000000000000
36.00000000000000000000  0.00000000000000000000  0.00000000000000000000
37.00000000000000000000  0.00000000000000000000  0.00000000000000000000
38.00000000000000000000  0.00000000000000000000  0.00000000000000000000
36.00000000000000000000  1.00000000000000000000  0.00000000000000000000
37.00000000000000000000  1.00000000000000000000  0.00000000000000000000
36.00000000000000000000  2.00000000000000000000  0.00000000000000000000
38.00000000000000000000  0.00000000000000000000  0.00000000000000000000
39.00000000000000000000  0.00000000000000000000  0.00000000000000000000
40.00000000000000000000  0.00000000000000000000  0.00000000000000000000
38.00000000000000000000  1.00000000000000000000  0.00000000000000000000
39.00000000000000000000  1.00000000000000000000  0.00000000000000000000
38.00000000000000000000  2.00000000000000000000  0.00000000000000000000
40.00000000000000000000  0.00000000000000000000  0.00000000000000000000
41.00000000000000000000  0.00000000000000000000  0.00000000000000000000
42.00000000000000000000  0.00000000000000000000  0.00000000000000000000
40.00000000000000000000  1.00000000000000000000  0.00000000000000000000
41.00000000000000000000  1.00000000000000000000  0.00000000000000000000
40.00000000000000000000  2.00000000000000000000  0.00000000000000000000
42.00000000000000000000  0.00000000000000000000  0.00000000000000000000
43.00000000000000000000  0.00000000000000000000  0.00000000000000000000
44.00000000000000000000  0.00000000000000000000  0.00000000000000000000
42.00000000000000000000  1.00000000000000000000  0.00000000000000000000
43.00000000000000000000  1.00000000000000000000  0.00000000000000000000
42.00000000000000000000  2.00000000000000000000  0.00000000000000000000
44.00000000000000000000  0.00000000000000000000  0.00000000000000000000
45.00000000000000000000  0.00000000000000000000  0.00000000000000000000
46.00000000000000000000  0.00000000000000000000  0.00000000000000000000
44.00000000000000000000  1.00000000000000000000  0.00000000000000000000
45.00000000000000000000  1.00000000000000000000  0.00000000000000000000
[...]
POINT_DATA 1800
SCALARS  H  double
LOOKUP_TABLE default
      7.535743992845 
      7.539370486683 
      7.550582709935 
      7.535754175144 
      7.539384743096 
      7.535734218034 
      7.550317096570 
      7.567270944436 
      7.588942807588 
      7.550349981697 
      7.567269437083 
      7.550322642550 
      7.588504761868 
      7.612189521905 
      7.635941851970 
      7.588551675603 
      7.612180971555 
      7.588530345647 
      7.635506295436 
      7.656831394689 
      7.673630327586 
      7.635542606136 
      7.656819743181 
      7.635531525931 
      7.673363660339 
      7.684286316074 
      7.687850616335 
      7.673373911735 
      7.684276987426 
      7.673375773667 
      7.687847057757 
      7.684292039007 
      7.673308715643 
      7.687826568410 
      7.684289201681 
      7.687839742287 
      7.673565610494 
      7.656848930129 
      7.635408338100 
      7.673522455143 
      7.656852882264 
      7.673542647967 
      7.635833374349 
      7.612216324056 
      7.588392470195 
      7.635784644412 
      7.612224274497 
      7.635805579199 
      7.588831395743 
      7.567298338715 
      7.550224655934 
      7.588795610870 
      7.567307027727 
      7.588809531983 
      7.550509730189 
      7.539388339188 
      7.535724134600 
      7.550499607676 
      7.539395415389 
      7.550500014373 
      7.535739049080 
      7.539377527260 
      7.550572214338 
      7.535757672810 
      7.539380928758 
      7.535743554263 
      7.550307238935 
      7.567272567709 
      7.588942034716 
      7.550347745092 
      7.567270204354 
      7.550325250327 
      7.588503941723 
      7.612189551718 
      7.635941874840 
      7.588551534637 
      7.612181005390 
      7.588530676556 
      7.635506259384 
      7.656831392612 
      7.673630347399 
      7.635542624923 
      7.656819734452 
      7.635531607852 
      7.673363663823 
      7.684286314749 
      7.687850619619 
      7.673373917235 
      7.684276986172 
      7.673375783079 
      7.687847058688 
      7.684292038840 
      7.673308715947 
      7.687826568992 
      7.684289201602 
      7.687839742901 
      7.673565610588 
      7.656848930117 
      7.635408338121 
      7.673522455180 
      7.656852882262 
      7.673542647997 
      7.635833374354 
      7.612216324055 
      7.588392470196 
      7.635784644413 
      7.612224274497 
      7.635805579200 
      7.588831395743 
      7.567298338715 
      7.550224655935 
      7.588795610870 
      7.567307027727 
      7.588809531983 
      7.550509730189 
      7.539388339188 
      7.535724134600 
      7.550499607676 
      7.539395415389 
      7.550500014373 
      7.535739049080 
      7.539377527260 
      7.550572214338 
      7.535757672810 
      7.539380928758 
      7.535743554263 
      7.550307238935 
      7.567272567709 
      7.588942034716 
      7.550347745092 
      7.567270204354 
      7.550325250327 
      7.588503941723 
      7.612189551718 
      7.635941874840 
      7.588551534637 
      7.612181005390 
      7.588530676556 
      7.635506259384 
      7.656831392612 
      7.673630347399 
      7.635542624923 
      7.656819734452 
      7.635531607852 
      7.673363663823 
      7.684286314749 
      7.687850619619 
      7.673373917235 
      7.684276986172 
      7.673375783079 
      7.687847058688 
      7.684292038840 
      7.673308715947 
      7.687826568992 
      7.684289201602 
      7.687839742901 
      7.673565610588 
      7.656848930117 
      7.635408338121 
      7.673522455180 
      7.656852882262 
      7.673542647997 
      7.635833374354 
      7.612216324055 
      7.588392470196 
      7.635784644413 
      7.612224274497 
      7.635805579200 
      7.588831395743 
      7.567298338715 
      7.550224655935 
      7.588795610870 
      7.567307027727 
      7.588809531983 
      7.550509730189 
      7.539388339188 
      7.535724134600 
      7.550499607676 
      7.539395415389 
      7.550500014373 
      7.535739049080 
      7.539377527260 
      7.550572214338 
      7.535757672810 
      7.539380928758 
      7.535743554263 
      7.550307238935 
      7.567272567709 
      7.588942034716 
      7.550347745092 
      7.567270204354 
      7.550325250327 
      7.588503941723 
      7.612189551718 
      7.635941874840 
      7.588551534637 
      7.612181005390 
      7.588530676556 
      7.635506259384 
      7.656831392612 
      7.673630347399 
      7.635542624923 
      7.656819734452 
      7.635531607852 
      7.673363663823 
      7.684286314749 
      7.687850619619 
      7.673373917235 
      7.684276986172 
      7.673375783079 
      7.687847058688 
      7.684292038840 
      7.673308715947 
      7.687826568992 
      7.684289201602 
      7.687839742901 
      7.673565610588 
      7.656848930117 
      7.635408338121 
      7.673522455180 
      7.656852882262 
      7.673542647997 
      7.635833374354 
      7.612216324055 
      7.588392470196 
      7.635784644413 
      7.612224274497 
      7.635805579200 
      7.588831395743 
      7.567298338715 
      7.550224655935 
      7.588795610870 
      7.567307027727 
      7.588809531983 
      7.550509730189 
      7.539388339188 
      7.535724134600 
      7.550499607676 
      7.539395415389 
      7.550500014373 
      7.535739049080 
      7.539377527260 
      7.550572214338 
      7.535757672810 
      7.539380928758 
      7.535743554263 
      7.550307238935 
      7.567272567709 
      7.588942034716 
      7.550347745092 
      7.567270204354 
      7.550325250327 
      7.588503941723 
      7.612189551718 
      7.635941874840 
      7.588551534637 
      7.612181005390 
      7.588530676556 
      7.635506259384 
      7.656831392612 
      7.673630347398 
      7.635542624924 
      7.656819734451 
      7.635531607852 
      7.673363663836 
      7.684286314737 
      7.687850619661 
      7.673373917242 
      7.684276986160 
      7.673375783050 
      7.687847058942 
      7.684292038602 
      7.673308716603 
      7.687826568910 
      7.684289201815 
      7.687839742172 
      7.673565612007 
      7.656848927732 
      7.635408327943 
      7.673522451213 
      7.656852889147 
      7.673542637556 
      7.635833348410 
      7.612216318521 
      7.588392056145 
      7.635784586629 
      7.612224372322 
      7.635805450451 
      7.588830830733 
      7.567298841526 
      7.550221159218 
      7.588794958728 
      7.567308113101 
      7.588808329120 
      7.550502374047 
      7.539388492178 
      7.535747890807 
      7.550495406704 
      7.539392965186 
      7.550500607934 
      7.550482502438 
      7.550491941771 
      7.550497490416 
      7.539397614634 
      7.539385448462 
      7.535728182296 
      7.588772057857 
      7.588767856399 
      7.588797295996 
      7.567310885137 
      7.567302429662 
      7.550214397550 
      7.635772428278 
      7.635749127442 
      7.635784467018 
      7.612236647676 
      7.612229078434 
      7.588370396795 
      7.673527910072 
      7.673493615033 
      7.673519753821 
      7.656868891048 
      7.656866033552 
      7.635380737591 
      7.687849776149 
      7.687816838994 
      7.687823422499 
      7.684302361260 
      7.684306040570 
      7.673286823644 
      7.673406228221 
      7.673387309753 
      7.673372443672 
      7.684281791282 
      7.684290786669 
      7.687844305614 
      7.635569639434 
      7.635572774265 
      7.635542829616 
      7.656814368687 
      7.656824859715 
      7.673642580555 
      7.588561372259 
      7.588585856658 
      7.588552140075 
      7.612167921727 
      7.612175652096 
      7.635967169965 
      7.550337679314 
      7.550373678062 
      7.550348329511 
      7.567254579089 
      7.567256995996 
      7.588970087183 
      7.535733685835 
      7.535766686132 
      7.535759090879 
      7.539368441724 
      7.539365255362 
      7.550593122816 
      7.550471083694 
      7.550488570879 
      7.550502250043 
      7.539390411631 
      7.539382984146 
      7.535731431428 
      7.588771381130 
      7.588767531558 
      7.588797988064 
      7.567311365607 
      7.567302167427 
      7.550216091506 
      7.635772407324 
      7.635749143668 
      7.635784596324 
      7.612236690033 
      7.612229007094 
      7.588370543815 
      7.673527919450 
      7.673493621955 
      7.673519765347 
      7.656868890408 
      7.656866025751 
      7.635380782470 
      7.687849778035 
      7.687816839599 
      7.687823423114 
      7.684302361147 
      7.684306040331 
      7.673286829715 
      7.673406228415 
      7.673387309786 
      7.673372443702 
      7.684281791290 
      7.684290786676 
      7.687844306070 
      7.635569639448 
      7.635572774266 
      7.635542829618 
      7.656814368689 
      7.656824859716 
      7.673642580579 
      7.588561372260 
      7.588585856658 
      7.588552140075 
      7.612167921727 
      7.612175652096 
      7.635967169966 
      7.550337679314 
      7.550373678062 
      7.550348329511 
      7.567254579089 
      7.567256995996 
      7.588970087183 
      7.535733685835 
      7.535766686132 
      7.535759090879 
      7.539368441724 
      7.539365255362 
      7.550593122816 
      7.550471083694 
      7.550488570879 
      7.550502250043 
      7.539390411631 
      7.539382984146 
      7.535731431428 
      7.588771381130 
      7.588767531558 
      7.588797988064 
      7.567311365607 
      7.567302167427 
      7.550216091506 
      7.635772407324 
      7.635749143668 
      7.635784596324 
      7.612236690033 
      7.612229007094 
      7.588370543815 
      7.673527919450 
      7.673493621955 
      7.673519765347 
      7.656868890408 
      7.656866025751 
      7.635380782470 
      7.687849778035 
      7.687816839599 
      7.687823423114 
      7.684302361147 
      7.684306040331 
      7.673286829715 
      7.673406228415 
      7.673387309786 
      7.673372443702 
      7.684281791290 
      7.684290786676 
      7.687844306070 
      7.635569639448 
      7.635572774266 
      7.635542829618 
      7.656814368689 
      7.656824859716 
      7.673642580579 
      7.588561372260 
      7.588585856658 
      7.588552140075 
      7.612167921727 
      7.612175652096 
      7.635967169966 
      7.550337679314 
      7.550373678062 
      7.550348329511 
      7.567254579089 
      7.567256995996 
      7.588970087183 
      7.535733685835 
      7.535766686132 
      7.535759090879 
      7.539368441724 
      7.539365255362 
      7.550593122816 
      7.550471083694 
      7.550488570879 
      7.550502250043 
      7.539390411631 
      7.539382984146 
      7.535731431428 
      7.588771381130 
      7.588767531558 
      7.588797988064 
      7.567311365607 
      7.567302167427 
      7.550216091506 
      7.635772407324 
      7.635749143668 
      7.635784596324 
      7.612236690033 
      7.612229007094 
      7.588370543815 
      7.673527919450 
      7.673493621955 
      7.673519765347 
      7.656868890408 
      7.656866025751 
      7.635380782470 
      7.687849778035 
      7.687816839599 
      7.687823423114 
      7.684302361147 
      7.684306040331 
      7.673286829715 
      7.673406228415 
      7.673387309786 
      7.673372443702 
      7.684281791290 
      7.684290786676 
      7.687844306070 
      7.635569639448 
      7.635572774266 
      7.635542829618 
      7.656814368689 
      7.656824859716 
      7.673642580579 
      7.588561372260 
      7.588585856658 
      7.588552140075 
      7.612167921727 
      7.612175652096 
      7.635967169966 
      7.550337679314 
      7.550373678062 
      7.550348329511 
      7.567254579089 
      7.567256995996 
      7.588970087183 
      7.535733685835 
      7.535766686132 
      7.535759090879 
      7.539368441724 
      7.539365255362 
      7.550593122816 
      7.550471083694 
      7.550488570879 
      7.550502250043 
      7.539390411631 
      7.539382984146 
      7.535731431428 
      7.588771381130 
      7.588767531558 
      7.588797988064 
      7.567311365607 
      7.567302167427 
      7.550216091506 
      7.635772407324 
      7.635749143668 
      7.635784596324 
      7.612236690033 
      7.612229007094 
      7.588370543815 
      7.673527919454 
      7.673493621959 
      7.673519765333 
      7.656868890406 
      7.656866025750 
      7.635380782470 
      7.687849778130 
      7.687816839558 
      7.687823422647 
      7.684302361142 
      7.684306040352 
      7.673286829678 
      7.673406228570 
      7.673387306849 
      7.673372434561 
      7.684281791856 
      7.684290787188 
      7.687844305065 
      7.635569613357 
      7.635572713733 
      7.635542705202 
      7.656814379930 
      7.656824866791 
      7.673642567218 
      7.588560727088 
      7.588585034427 
      7.588551118255 
      7.612168070674 
      7.612175806135 
      7.635966966789 
      7.550330434103 
      7.550368635198 
      7.550347286853 
      7.567256699560 
      7.567258599089 
      7.588967169105 
      7.535738913315 
      7.535769761481 
      7.535767568526 
      7.539369417604 
      7.539362124106 
      7.550588219583 
      7.535768700652 
      7.539365874391 
      7.550592408401 
      7.535760623241 
      7.539380143352 
      7.535734712126 
      7.550350639558 
      7.567255858066 
      7.588973057134 
      7.550363027976 
      7.567266527489 
      7.550326372744 
      7.588557391159 
      7.612172492524 
      7.635970600157 
      7.588572199896 
      7.612176417294 
      7.588532155581 
      7.635548873455 
      7.656820326523 
      7.673645273260 
      7.635562288012 
      7.656815953776 
      7.635533823402 
      7.673376926727 
      7.684286745537 
      7.687845091570 
      7.673384181904 
      7.684275752947 
      7.673376969867 
      7.687824576016 
      7.684304170211 
      7.673285068272 
      7.687822879358 
      7.684291126508 
      7.687839221546 
      7.673517233458 
      7.656867064191 
      7.635376838287 
      7.673506519528 
      7.656857095511 
      7.673540640921 
      7.635779439808 
      7.612232463531 
      7.588366006948 
      7.635763306793 
      7.612228967157 
      7.635803012447 
      7.588792189606 
      7.567306652143 
      7.550212959823 
      7.588777164408 
      7.567310435654 
      7.588807448822 
      7.550497977060 
      7.539386854215 
      7.535730907951 
      7.550490430873 
      7.539396428473 
      7.550499119142 
      7.535757957056 
      7.539367162838 
      7.550595106711 
      7.535760725944 
      7.539379246652 
      7.535744085391 
      7.550350847310 
      7.567256232869 
      7.588973546629 
      7.550362175403 
      7.567266357455 
      7.550327019393 
      7.588557461963 
      7.612172407977 
      7.635970826037 
      7.588572560231 
      7.612176291554 
      7.588533138441 
      7.635548938665 
      7.656820310624 
      7.673645293860 
      7.635562366565 
      7.656815941825 
      7.635533916051 
      7.673376937149 
      7.684286744325 
      7.687845093035 
      7.673384188877 
      7.684275752111 
      7.673376974419 
      7.687824576975 
      7.684304170132 
      7.673285068391 
      7.687822879767 
      7.684291126464 
      7.687839221675 
      7.673517233517 
      7.656867064187 
      7.635376838294 
      7.673506519542 
      7.656857095511 
      7.673540640922 
      7.635779439810 
      7.612232463531 
      7.588366006948 
      7.635763306793 
      7.612228967157 
      7.635803012447 
      7.588792189606 
      7.567306652143 
      7.550212959823 
      7.588777164408 
      7.567310435654 
      7.588807448822 
      7.550497977060 
      7.539386854215 
      7.535730907951 
      7.550490430873 
      7.539396428473 
      7.550499119142 
      7.535757957056 
      7.539367162838 
      7.550595106711 
      7.535760725944 
      7.539379246652 
      7.535744085391 
      7.550350847310 
      7.567256232869 
      7.588973546629 
      7.550362175403 
      7.567266357455 
      7.550327019393 
      7.588557461963 
      7.612172407977 
      7.635970826037 
      7.588572560231 
      7.612176291554 
      7.588533138441 
      7.635548938665 
      7.656820310624 
      7.673645293860 
      7.635562366565 
      7.656815941825 
      7.635533916051 
      7.673376937149 
      7.684286744325 
      7.687845093035 
      7.673384188877 
      7.684275752111 
      7.673376974419 
      7.687824576975 
      7.684304170132 
      7.673285068391 
      7.687822879767 
      7.684291126464 
      7.687839221675 
      7.673517233517 
      7.656867064187 
      7.635376838294 
      7.673506519542 
      7.656857095511 
      7.673540640922 
      7.635779439810 
      7.612232463531 
      7.588366006948 
      7.635763306793 
      7.612228967157 
      7.635803012447 
      7.588792189606 
      7.567306652143 
      7.550212959823 
      7.588777164408 
      7.567310435654 
      7.588807448822 
      7.550497977060 
      7.539386854215 
      7.535730907951 
      7.550490430873 
      7.539396428473 
      7.550499119142 
      7.535757957056 
      7.539367162838 
      7.550595106711 
      7.535760725944 
      7.539379246652 
      7.535744085391 
      7.550350847310 
      7.567256232869 
      7.588973546629 
      7.550362175403 
      7.567266357455 
      7.550327019393 
      7.588557461963 
      7.612172407977 
      7.635970826037 
      7.588572560231 
      7.612176291554 
      7.588533138441 
      7.635548938665 
      7.656820310624 
      7.673645293860 
      7.635562366565 
      7.656815941825 
      7.635533916051 
      7.673376937149 
      7.684286744325 
      7.687845093035 
      7.673384188877 
      7.684275752111 
      7.673376974419 
      7.687824576975 
      7.684304170132 
      7.673285068391 
      7.687822879767 
      7.684291126464 
      7.687839221675 
      7.673517233517 
      7.656867064187 
      7.635376838294 
      7.673506519542 
      7.656857095511 
      7.673540640922 
      7.635779439810 
      7.612232463531 
      7.588366006948 
      7.635763306793 
      7.612228967157 
      7.635803012447 
      7.588792189606 
      7.567306652143 
      7.550212959823 
      7.588777164408 
      7.567310435654 
      7.588807448822 
      7.550497977060 
      7.539386854215 
      7.535730907951 
      7.550490430873 
      7.539396428473 
      7.550499119142 
      7.535757957056 
      7.539367162838 
      7.550595106711 
      7.535760725944 
      7.539379246652 
      7.535744085391 
      7.550350847310 
      7.567256232869 
      7.588973546629 
      7.550362175403 
      7.567266357455 
      7.550327019393 
      7.588557461963 
      7.612172407977 
      7.635970826037 
      7.588572560231 
      7.612176291554 
      7.588533138441 
      7.635548938665 
      7.656820310623 
      7.673645293856 
      7.635562366565 
      7.656815941824 
      7.635533916046 
      7.673376937159 
      7.684286744305 
      7.687845092893 
      7.673384188861 
      7.684275752123 
      7.673376974320 
      7.687824576996 
      7.684304169886 
      7.673285064224 
      7.687822879407 
      7.684291126839 
      7.687839220483 
      7.673517231792 
      7.656867063644 
      7.635376763382 
      7.673506514366 
      7.656857099760 
      7.673540629096 
      7.635779379475 
      7.612232543781 
      7.588365354008 
      7.635763227890 
      7.612228991768 
      7.635802914777 
      7.588791052262 
      7.567307810488 
      7.550213574320 
      7.588776614434 
      7.567310263725 
      7.588807234303 
      7.550494111236 
      7.539385533279 
      7.535726754845 
      7.550491778129 
      7.539396137000 
      7.550497442656 
      7.550497442656 
      7.550491778129 
      7.550494111236 
      7.539396137000 
      7.539385533279 
      7.535726754845 