# vtk DataFile Version 2.0
NDG-FEM NonhydrostaticStandingWave2d Simulation
ASCII
DATASET UNSTRUCTURED_GRID

POINTS 160 double
0.00000000000000000000  0.00000000000000000000  0.00000000000000000000
1.00000000000000000000  0.00000000000000000000  0.00000000000000000000
0.00000000000000000000  1.00000000000000000000  0.00000000000000000000
1.00000000000000000000  1.00000000000000000000  0.00000000000000000000
1.00000000000000000000  0.00000000000000000000  0.00000000000000000000
2.00000000000000000000  0.00000000000000000000  0.00000000000000000000
1.00000000000000000000  1.00000000000000000000  0.00000000000000000000
2.00000000000000000000  1.00000000000000000000  0.00000000000000000000
2.00000000000000000000  0.00000000000000000000  0.00000000000000000000
3.00000000000000000000  0.00000000000000000000  0.00000000000000000000
2.00000000000000000000  1.00000000000000000000  0.00000000000000000000
3.00000000000000000000  1.00000000000000000000  0.00000000000000000000
3.00000000000000000000  0.00000000000000000000  0.00000000000000000000
4.00000000000000000000  0.00000000000000000000  0.00000000000000000000
3.00000000000000000000  1.00000000000000000000  0.00000000000000000000
4.00000000000000000000  1.00000000000000000000  0.00000000000000000000
4.00000000000000000000  0.00000000000000000000  0.00000000000000000000
5.00000000000000000000  0.00000000000000000000  0.00000000000000000000
4.00000000000000000000  1.00000000000000000000  0.00000000000000000000
5.00000000000000000000  1.00000000000000000000  0.00000000000000000000
5.00000000000000000000  0.00000000000000000000  0.00000000000000000000
6.00000000000000000000  0.00000000000000000000  0.00000000000000000000
5.00000000000000000000  1.00000000000000000000  0.00000000000000000000
6.00000000000000000000  1.00000000000000000000  0.00000000000000000000
6.00000000000000000000  0.00000000000000000000  0.00000000000000000000
7.00000000000000000000  0.00000000000000000000  0.00000000000000000000
6.00000000000000000000  1.00000000000000000000  0.00000000000000000000
7.00000000000000000000  1.00000000000000000000  0.00000000000000000000
7.00000000000000000000  0.00000000000000000000  0.00000000000000000000
8.00000000000000000000  0.00000000000000000000  0.00000000000000000000
7.00000000000000000000  1.00000000000000000000  0.00000000000000000000
8.00000000000000000000  1.00000000000000000000  0.00000000000000000000
8.00000000000000000000  0.00000000000000000000  0.00000000000000000000
9.00000000000000000000  0.00000000000000000000  0.00000000000000000000
8.00000000000000000000  1.00000000000000000000  0.00000000000000000000
9.00000000000000000000  1.00000000000000000000  0.00000000000000000000
9.00000000000000000000  0.00000000000000000000  0.00000000000000000000
10.00000000000000000000  0.00000000000000000000  0.00000000000000000000
9.00000000000000000000  1.00000000000000000000  0.00000000000000000000
10.00000000000000000000  1.00000000000000000000  0.00000000000000000000
10.00000000000000000000  0.00000000000000000000  0.00000000000000000000
11.00000000000000000000  0.00000000000000000000  0.00000000000000000000
10.00000000000000000000  1.00000000000000000000  0.00000000000000000000
11.00000000000000000000  1.00000000000000000000  0.00000000000000000000
11.00000000000000000000  0.00000000000000000000  0.00000000000000000000
12.00000000000000000000  0.00000000000000000000  0.00000000000000000000
11.00000000000000000000  1.00000000000000000000  0.00000000000000000000
12.00000000000000000000  1.00000000000000000000  0.00000000000000000000
12.00000000000000000000  0.00000000000000000000  0.00000000000000000000
13.00000000000000000000  0.00000000000000000000  0.00000000000000000000
12.00000000000000000000  1.00000000000000000000  0.00000000000000000000
13.00000000000000000000  1.00000000000000000000  0.00000000000000000000
13.00000000000000000000  0.00000000000000000000  0.00000000000000000000
14.00000000000000000000  0.00000000000000000000  0.00000000000000000000
13.00000000000000000000  1.00000000000000000000  0.00000000000000000000
14.00000000000000000000  1.00000000000000000000  0.00000000000000000000
14.00000000000000000000  0.00000000000000000000  0.00000000000000000000
15.00000000000000000000  0.00000000000000000000  0.00000000000000000000
14.00000000000000000000  1.00000000000000000000  0.00000000000000000000
15.00000000000000000000  1.00000000000000000000  0.00000000000000000000
15.00000000000000000000  0.00000000000000000000  0.00000000000000000000
16.00000000000000000000  0.00000000000000000000  0.00000000000000000000
15.00000000000000000000  1.00000000000000000000  0.00000000000000000000
16.00000000000000000000  1.00000000000000000000  0.00000000000000000000
16.00000000000000000000  0.00000000000000000000  0.00000000000000000000
17.00000000000000000000  0.00000000000000000000  0.00000000000000000000
16.00000000000000000000  1.00000000000000000000  0.00000000000000000000
17.00000000000000000000  1.00000000000000000000  0.00000000000000000000
17.00000000000000000000  0.00000000000000000000  0.00000000000000000000
18.00000000000000000000  0.00000000000000000000  0.00000000000000000000
17.00000000000000000000  1.00000000000000000000  0.00000000000000000000
18.00000000000000000000  1.00000000000000000000  0.00000000000000000000
18.00000000000000000000  0.00000000000000000000  0.00000000000000000000
19.00000000000000000000  0.00000000000000000000  0.00000000000000000000
18.00000000000000000000  1.00000000000000000000  0.00000000000000000000
19.00000000000000000000  1.00000000000000000000  0.00000000000000000000
19.00000000000000000000  0.00000000000000000000  0.00000000000000000000
20.00000000000000000000  0.00000000000000000000  0.00000000000000000000
19.00000000000000000000  1.00000000000000000000  0.00000000000000000000
20.00000000000000000000  1.00000000000000000000  0.00000000000000000000
0.00000000000000000000  1.00000000000000000000  0.00000000000000000000
1.00000000000000000000  1.00000000000000000000  0.00000000000000000000
0.00000000000000000000  2.00000000000000000000  0.00000000000000000000
1.00000000000000000000  2.00000000000000000000  0.00000000000000000000
1.00000000000000000000  1.00000000000000000000  0.00000000000000000000
2.00000000000000000000  1.00000000000000000000  0.00000000000000000000
1.00000000000000000000  2.00000000000000000000  0.00000000000000000000
2.00000000000000000000  2.00000000000000000000  0.00000000000000000000
2.00000000000000000000  1.00000000000000000000  0.00000000000000000000
3.00000000000000000000  1.00000000000000000000  0.00000000000000000000
2.00000000000000000000  2.00000000000000000000  0.00000000000000000000
3.00000000000000000000  2.00000000000000000000  0.00000000000000000000
3.00000000000000000000  1.00000000000000000000  0.00000000000000000000
4.00000000000000000000  1.00000000000000000000  0.00000000000000000000
3.00000000000000000000  2.00000000000000000000  0.00000000000000000000
4.00000000000000000000  2.00000000000000000000  0.00000000000000000000
4.00000000000000000000  1.00000000000000000000  0.00000000000000000000
5.00000000000000000000  1.00000000000000000000  0.00000000000000000000
4.00000000000000000000  2.00000000000000000000  0.00000000000000000000
5.00000000000000000000  2.00000000000000000000  0.00000000000000000000
5.00000000000000000000  1.00000000000000000000  0.00000000000000000000
6.00000000000000000000  1.00000000000000000000  0.00000000000000000000
5.00000000000000000000  2.00000000000000000000  0.00000000000000000000
6.00000000000000000000  2.00000000000000000000  0.00000000000000000000
6.00000000000000000000  1.00000000000000000000  0.00000000000000000000
7.00000000000000000000  1.00000000000000000000  0.00000000000000000000
6.00000000000000000000  2.00000000000000000000  0.00000000000000000000
7.00000000000000000000  2.00000000000000000000  0.00000000000000000000
7.00000000000000000000  1.00000000000000000000  0.00000000000000000000
8.00000000000000000000  1.00000000000000000000  0.00000000000000000000
7.00000000000000000000  2.00000000000000000000  0.00000000000000000000
8.00000000000000000000  2.00000000000000000000  0.00000000000000000000
8.00000000000000000000  1.00000000000000000000  0.00000000000000000000
9.00000000000000000000  1.00000000000000000000  0.00000000000000000000
8.00000000000000000000  2.00000000000000000000  0.00000000000000000000
9.00000000000000000000  2.00000000000000000000  0.00000000000000000000
9.00000000000000000000  1.00000000000000000000  0.00000000000000000000
10.00000000000000000000  1.00000000000000000000  0.00000000000000000000
9.00000000000000000000  2.00000000000000000000  0.00000000000000000000
10.00000000000000000000  2.00000000000000000000  0.00000000000000000000
10.00000000000000000000  1.00000000000000000000  0.00000000000000000000
11.00000000000000000000  1.00000000000000000000  0.00000000000000000000
10.00000000000000000000  2.00000000000000000000  0.00000000000000000000
11.00000000000000000000  2.00000000000000000000  0.00000000000000000000
11.00000000000000000000  1.00000000000000000000  0.00000000000000000000
12.00000000000000000000  1.00000000000000000000  0.00000000000000000000
11.00000000000000000000  2.00000000000000000000  0.00000000000000000000
12.00000000000000000000  2.00000000000000000000  0.00000000000000000000
12.00000000000000000000  1.00000000000000000000  0.00000000000000000000
13.00000000000000000000  1.00000000000000000000  0.00000000000000000000
12.00000000000000000000  2.00000000000000000000  0.00000000000000000000
13.00000000000000000000  2.00000000000000000000  0.00000000000000000000
13.00000000000000000000  1.00000000000000000000  0.00000000000000000000
14.00000000000000000000  1.00000000000000000000  0.00000000000000000000
13.00000000000000000000  2.00000000000000000000  0.00000000000000000000
14.00000000000000000000  2.00000000000000000000  0.00000000000000000000
14.00000000000000000000  1.00000000000000000000  0.00000000000000000000
15.00000000000000000000  1.00000000000000000000  0.00000000000000000000
14.00000000000000000000  2.00000000000000000000  0.00000000000000000000
15.00000000000000000000  2.00000000000000000000  0.00000000000000000000
15.00000000000000000000  1.00000000000000000000  0.00000000000000000000
16.00000000000000000000  1.00000000000000000000  0.00000000000000000000
15.00000000000000000000  2.00000000000000000000  0.00000000000000000000
16.00000000000000000000  2.00000000000000000000  0.00000000000000000000
16.00000000000000000000  1.00000000000000000000  0.00000000000000000000
17.00000000000000000000  1.00000000000000000000  0.00000000000000000000
16.00000000000000000000  2.00000000000000000000  0.00000000000000000000
17.00000000000000000000  2.00000000000000000000  0.00000000000000000000
17.00000000000000000000  1.00000000000000000000  0.00000000000000000000
18.00000000000000000000  1.00000000000000000000  0.00000000000000000000
17.00000000000000000000  2.00000000000000000000  0.00000000000000000000
18.00000000000000000000  2.00000000000000000000  0.00000000000000000000
18.00000000000000000000  1.00000000000000000000  0.00000000000000000000
19.00000000000000000000  1.00000000000000000000  0.00000000000000000000
18.00000000000000000000  2.00000000000000000000  0.00000000000000000000
19.00000000000000000000  2.00000000000000000000  0.00000000000000000000
19.00000000000000000000  1.00000000000000000000  0.00000000000000000000
20.00000000000000000000  1.00000000000000000000  0.00000000000000000000
19.00000000000000000000  2.00000000000000000000  0.00000000000000000000
20.00000000000000000000  2.00000000000000000000  0.00000000000000000000

CELLS 40 200
4 0 1 3 2 
4 4 5 7 6 
4 8 9 11 10 
4 12 13 15 14 
4 16 17 19 18 
4 20 21 23 22 
4 24 25 27 26 
4 28 29 31 30 
4 32 33 35 34 
4 36 37 39 38 
4 40 41 43 42 
4 44 45 47 46 
4 48 49 51 50 
4 52 53 55 54 
4 56 57 59 58 
4 60 61 63 62 
4 64 65 67 66 
4 68 69 71 70 
4 72 73 75 74 
4 76 77 79 78 
4 80 81 83 82 
4 84 85 87 86 
4 88 89 91 90 
4 92 93 95 94 
4 96 97 99 98 
4 100 101 103 102 
4 104 105 107 106 
4 108 109 111 110 
4 112 113 115 114 
4 116 117 119 118 
4 120 121 123 122 
4 124 125 127 126 
4 128 129 131 130 
4 132 133 135 134 
4 136 137 139 138 
4 140 141 143 142 
4 144 145 147 146 
4 148 149 151 150 
4 152 153 155 154 
4 156 157 159 158 

CELL_TYPES 40
9 9 9 9 9 9 9 9 9 9 9 9 
9 9 9 9 9 9 9 9 9 9 9 9 
9 9 9 9 9 9 9 9 9 9 9 9 
9 9 9 9 

POINT_DATA 160
SCALARS  H  double
LOOKUP_TABLE default
      7.552835900033 
      7.552034596898 
      7.552835900033 
      7.552034596898 
      7.552004980049 
      7.562073226150 
      7.552004980049 
      7.562073226150 
      7.561579599679 
      7.575586195728 
      7.561579599679 
      7.575586195728 
      7.575015662827 
      7.592987695396 
      7.575015662827 
      7.592987695396 
      7.592299242664 
      7.612186519305 
      7.592299242664 
      7.612186519305 
      7.611471561926 
      7.631400316126 
      7.611471561926 
      7.631400316126 
      7.630723205593 
      7.648727377717 
      7.630723205593 
      7.648727377717 
      7.648152953676 
      7.662455718964 
      7.648152953676 
      7.662455718964 
      7.662034211756 
      7.671261979215 
      7.662034211756 
      7.671261979215 
      7.670978734666 
      7.674190321630 
      7.670978734666 
      7.674190321630 
      7.674190321630 
      7.670978734666 
      7.674190321630 
      7.670978734666 
      7.671261979215 
      7.662034211756 
      7.671261979215 
      7.662034211756 
      7.662455718964 
      7.648152953676 
      7.662455718964 
      7.648152953676 
      7.648727377717 
      7.630723205593 
      7.648727377717 
      7.630723205593 
      7.631400316126 
      7.611471561926 
      7.631400316126 
      7.611471561926 
      7.612186519305 
      7.592299242664 
      7.612186519305 
      7.592299242664 
      7.592987695396 
      7.575015662827 
      7.592987695396 
      7.575015662827 
      7.575586195728 
      7.561579599679 
      7.575586195728 
      7.561579599679 
      7.562073226150 
      7.552004980049 
      7.562073226150 
      7.552004980049 
      7.552034596898 
      7.552835900033 
      7.552034596898 
      7.552835900033 
      7.552835900033 
      7.552034596898 
      7.552835900033 
      7.552034596898 
      7.552004980049 
      7.562073226150 
      7.552004980049 
      7.562073226150 
      7.561579599679 
      7.575586195728 
      7.561579599679 
      7.575586195728 
      7.575015662827 
      7.592987695396 
      7.575015662827 
      7.592987695396 
      7.592299242664 
      7.612186519305 
      7.592299242664 
      7.612186519305 
      7.611471561926 
      7.631400316126 
      7.611471561926 
      7.631400316126 
      7.630723205593 
      7.648727377717 
      7.630723205593 
      7.648727377717 
      7.648152953676 
      7.662455718964 
      7.648152953676 
      7.662455718964 
      7.662034211756 
      7.671261979215 
      7.662034211756 
      7.671261979215 
      7.670978734666 
      7.674190321630 
      7.670978734666 
      7.674190321630 
      7.674190321630 
      7.670978734666 
      7.674190321630 
      7.670978734666 
      7.671261979215 
      7.662034211756 
      7.671261979215 
      7.662034211756 
      7.662455718964 
      7.648152953676 
      7.662455718964 
      7.648152953676 
      7.648727377717 
      7.630723205593 
      7.648727377717 
      7.630723205593 
      7.631400316126 
      7.611471561926 
      7.631400316126 
      7.611471561926 
      7.612186519305 
      7.592299242664 
      7.612186519305 
      7.592299242664 
      7.592987695396 
      7.575015662827 
      7.592987695396 
      7.575015662827 
      7.575586195728 
      7.561579599679 
      7.575586195728 
      7.561579599679 
      7.562073226150 
      7.552004980049 
      7.562073226150 
      7.552004980049 
      7.552034596898 
      7.552835900033 
      7.552034596898 
      7.552835900033 
SCALARS  HU  double
LOOKUP_TABLE default
     -0.002665865255 
     -0.128852595032 
     -0.002665865255 
     -0.128852595032 
     -0.135023820118 
     -0.253726214064 
     -0.135023820118 
     -0.253726214064 
     -0.257197728372 
     -0.349786912303 
     -0.257197728372 
     -0.349786912303 
     -0.352683629737 
     -0.412215383365 
     -0.352683629737 
     -0.412215383365 
     -0.413490729449 
     -0.433801285364 
     -0.413490729449 
     -0.433801285364 
     -0.433521124383 
     -0.412916495163 
     -0.433521124383 
     -0.412916495163 
     -0.411078239352 
     -0.351711417847 
     -0.411078239352 
     -0.351711417847 
     -0.348519724414 
     -0.256296435861 
     -0.348519724414 
     -0.256296435861 
     -0.252118470346 
     -0.135971869365 
     -0.252118470346 
     -0.135971869365 
     -0.131716673065 
     -0.001977670237 
     -0.131716673065 
     -0.001977670237 
      0.001977670237 
      0.131716673065 
      0.001977670237 
      0.131716673065 
      0.135971869365 
      0.252118470346 
      0.135971869365 
      0.252118470346 
      0.256296435861 
      0.348519724414 
      0.256296435861 
      0.348519724414 
      0.351711417847 
      0.411078239352 
      0.351711417847 
      0.411078239352 
      0.412916495163 
      0.433521124383 
      0.412916495163 
      0.433521124383 
      0.433801285364 
      0.413490729449 
      0.433801285364 
      0.413490729449 
      0.412215383365 
      0.352683629737 
      0.412215383365 
      0.352683629737 
      0.349786912303 
      0.257197728372 
      0.349786912303 
      0.257197728372 
      0.253726214064 
      0.135023820118 
      0.253726214064 
      0.135023820118 
      0.128852595032 
      0.002665865255 
      0.128852595032 
      0.002665865255 
     -0.002665865255 
     -0.128852595032 
     -0.002665865255 
     -0.128852595032 
     -0.135023820118 
     -0.253726214064 
     -0.135023820118 
     -0.253726214064 
     -0.257197728372 
     -0.349786912303 
     -0.257197728372 
     -0.349786912303 
     -0.352683629737 
     -0.412215383365 
     -0.352683629737 
     -0.412215383365 
     -0.413490729449 
     -0.433801285364 
     -0.413490729449 
     -0.433801285364 
     -0.433521124383 
     -0.412916495163 
     -0.433521124383 
     -0.412916495163 
     -0.411078239352 
     -0.351711417847 
     -0.411078239352 
     -0.351711417847 
     -0.348519724414 
     -0.256296435861 
     -0.348519724414 
     -0.256296435861 
     -0.252118470346 
     -0.135971869365 
     -0.252118470346 
     -0.135971869365 
     -0.131716673065 
     -0.001977670237 
     -0.131716673065 
     -0.001977670237 
      0.001977670237 
      0.131716673065 
      0.001977670237 
      0.131716673065 
      0.135971869365 
      0.252118470346 
      0.135971869365 
      0.252118470346 
      0.256296435861 
      0.348519724414 
      0.256296435861 
      0.348519724414 
      0.351711417847 
      0.411078239352 
      0.351711417847 
      0.411078239352 
      0.412916495163 
      0.433521124383 
      0.412916495163 
      0.433521124383 
      0.433801285364 
      0.413490729449 
      0.433801285364 
      0.413490729449 
      0.412215383365 
      0.352683629737 
      0.412215383365 
      0.352683629737 
      0.349786912303 
      0.257197728372 
      0.349786912303 
      0.257197728372 
      0.253726214064 
      0.135023820118 
      0.253726214064 
      0.135023820118 
      0.128852595032 
      0.002665865255 
      0.128852595032 
      0.002665865255 
SCALARS  HV  double
LOOKUP_TABLE default
      0.000000000000 
      0.000000000000 
      0.000000000000 
      0.000000000000 
      0.000000000000 
      0.000000000000 
      0.000000000000 
     -0.000000000000 
      0.000000000000 
      0.000000000000 
     -0.000000000000 
     -0.000000000000 
      0.000000000000 
     -0.000000000000 
     -0.000000000000 
      0.000000000000 
     -0.000000000000 
     -0.000000000000 
      0.000000000000 
      0.000000000000 
     -0.000000000000 
      0.000000000000 
      0.000000000000 
     -0.000000000000 
      0.000000000000 
      0.000000000000 
     -0.000000000000 
     -0.000000000000 
      0.000000000000 
     -0.000000000000 
     -0.000000000000 
     -0.000000000000 
      0.000000000000 
     -0.000000000000 
     -0.000000000000 
      0.000000000000 
     -0.000000000000 
     -0.000000000000 
     -0.000000000000 
     -0.000000000000 
     -0.000000000000 
      0.000000000000 
     -0.000000000000 
     -0.000000000000 
     -0.000000000000 
     -0.000000000000 
     -0.000000000000 
     -0.000000000000 
     -0.000000000000 
     -0.000000000000 
      0.000000000000 
     -0.000000000000 
     -0.000000000000 
     -0.000000000000 
     -0.000000000000 
     -0.000000000000 
      0.000000000000 
     -0.000000000000 
     -0.000000000000 
     -0.000000000000 
     -0.000000000000 
     -0.000000000000 
     -0.000000000000 
     -0.000000000000 
      0.000000000000 
      0.000000000000 
     -0.000000000000 
      0.000000000000 
      0.000000000000 
     -0.000000000000 
      0.000000000000 
      0.000000000000 
     -0.000000000000 
      0.000000000000 
      0.000000000000 
      0.000000000000 
      0.000000000000 
      0.000000000000 
     -0.000000000000 
     -0.000000000000 
      0.000000000000 
      0.000000000000 
      0.000000000000 
      0.000000000000 
      0.000000000000 
      0.000000000000 
      0.000000000000 
     -0.000000000000 
      0.000000000000 
      0.000000000000 
     -0.000000000000 
     -0.000000000000 
     -0.000000000000 
      0.000000000000 
     -0.000000000000 
     -0.000000000000 
     -0.000000000000 
     -0.000000000000 
     -0.000000000000 
     -0.000000000000 
     -0.000000000000 
      0.000000000000 
      0.000000000000 
     -0.000000000000 
      0.000000000000 
      0.000000000000 
     -0.000000000000 
      0.000000000000 
      0.000000000000 
      0.000000000000 
      0.000000000000 
      0.000000000000 
      0.000000000000 
     -0.000000000000 
      0.000000000000 
     -0.000000000000 
     -0.000000000000 
     -0.000000000000 
     -0.000000000000 
      0.000000000000 
     -0.000000000000 
     -0.000000000000 
      0.000000000000 
     -0.000000000000 
     -0.000000000000 
     -0.000000000000 
     -0.000000000000 
      0.000000000000 
     -0.000000000000 
      0.000000000000 
      0.000000000000 
      0.000000000000 
      0.000000000000 
      0.000000000000 
      0.000000000000 
     -0.000000000000 
      0.000000000000 
     -0.000000000000 
     -0.000000000000 
      0.000000000000 
     -0.000000000000 
     -0.000000000000 
      0.000000000000 
     -0.000000000000 
     -0.000000000000 
      0.000000000000 
     -0.000000000000 
     -0.000000000000 
      0.000000000000 
     -0.000000000000 
      0.000000000000 
      0.000000000000 
     -0.000000000000 
      0.000000000000 
      0.000000000000 
     -0.000000000000 
      0.000000000000 
      0.000000000000 
     -0.000000000000 
      0.000000000000 
SCALARS  HW  double
LOOKUP_TABLE default
      0.488410749982 
      0.504474610532 
      0.488410749982 
      0.504474610532 
      0.498277094540 
      0.418155762636 
      0.498277094540 
      0.418155762636 
      0.413986835138 
      0.303812810985 
      0.413986835138 
      0.303812810985 
      0.299817669174 
      0.156460513418 
      0.299817669174 
      0.156460513418 
      0.153853410050 
     -0.005209311199 
      0.153853410050 
     -0.005209311199 
     -0.006287941016 
     -0.166170934520 
     -0.006287941016 
     -0.166170934520 
     -0.165689919244 
     -0.310587458703 
     -0.165689919244 
     -0.310587458703 
     -0.308836824025 
     -0.424545987623 
     -0.308836824025 
     -0.424545987623 
     -0.421980572768 
     -0.497845604177 
     -0.421980572768 
     -0.497845604177 
     -0.494998721391 
     -0.521998191088 
     -0.494998721391 
     -0.521998191088 
     -0.521998191088 
     -0.494998721391 
     -0.521998191088 
     -0.494998721391 
     -0.497845604177 
     -0.421980572768 
     -0.497845604177 
     -0.421980572768 
     -0.424545987623 
     -0.308836824025 
     -0.424545987623 
     -0.308836824025 
     -0.310587458703 
     -0.165689919244 
     -0.310587458703 
     -0.165689919244 
     -0.166170934520 
     -0.006287941016 
     -0.166170934520 
     -0.006287941016 
     -0.005209311199 
      0.153853410050 
     -0.005209311199 
      0.153853410050 
      0.156460513418 
      0.299817669174 
      0.156460513418 
      0.299817669174 
      0.303812810985 
      0.413986835138 
      0.303812810985 
      0.413986835138 
      0.418155762636 
      0.498277094540 
      0.418155762636 
      0.498277094540 
      0.504474610532 
      0.488410749982 
      0.504474610532 
      0.488410749982 
      0.488410749982 
      0.504474610532 
      0.488410749982 
      0.504474610532 
      0.498277094540 
      0.418155762636 
      0.498277094540 
      0.418155762636 
      0.413986835138 
      0.303812810985 
      0.413986835138 
      0.303812810985 
      0.299817669174 
      0.156460513418 
      0.299817669174 
      0.156460513418 
      0.153853410050 
     -0.005209311199 
      0.153853410050 
     -0.005209311199 
     -0.006287941016 
     -0.166170934520 
     -0.006287941016 
     -0.166170934520 
     -0.165689919244 
     -0.310587458703 
     -0.165689919244 
     -0.310587458703 
     -0.308836824025 
     -0.424545987623 
     -0.308836824025 
     -0.424545987623 
     -0.421980572768 
     -0.497845604177 
     -0.421980572768 
     -0.497845604177 
     -0.494998721391 
     -0.521998191088 
     -0.494998721391 
     -0.521998191088 
     -0.521998191088 
     -0.494998721391 
     -0.521998191088 
     -0.494998721391 
     -0.497845604177 
     -0.421980572768 
     -0.497845604177 
     -0.421980572768 
     -0.424545987623 
     -0.308836824025 
     -0.424545987623 
     -0.308836824025 
     -0.310587458703 
     -0.165689919244 
     -0.310587458703 
     -0.165689919244 
     -0.166170934520 
     -0.006287941016 
     -0.166170934520 
     -0.006287941016 
     -0.005209311199 
      0.153853410050 
     -0.005209311199 
      0.153853410050 
      0.156460513418 
      0.299817669174 
      0.156460513418 
      0.299817669174 
      0.303812810985 
      0.413986835138 
      0.303812810985 
      0.413986835138 
      0.418155762636 
      0.498277094540 
      0.418155762636 
      0.498277094540 
      0.504474610532 
      0.488410749982 
      0.504474610532 
      0.488410749982 
SCALARS  q  double
LOOKUP_TABLE default
      0.333429199035 
      0.354636024904 
      0.333429199035 
      0.354636024904 
      0.350142410836 
      0.293544647776 
      0.350142410836 
      0.293544647776 
      0.290440586217 
      0.215869318432 
      0.290440586217 
      0.215869318432 
      0.212495664078 
      0.114986985126 
      0.212495664078 
      0.114986985126 
      0.112117625554 
      0.003813283910 
      0.112117625554 
      0.003813283910 
      0.001635971084 
     -0.107494046024 
      0.001635971084 
     -0.107494046024 
     -0.108746203966 
     -0.207954828590 
     -0.108746203966 
     -0.207954828590 
     -0.208166944448 
     -0.287721552637 
     -0.208166944448 
     -0.287721552637 
     -0.286908372303 
     -0.339325168031 
     -0.286908372303 
     -0.339325168031 
     -0.337716489288 
     -0.356435973579 
     -0.337716489288 
     -0.356435973579 
     -0.356435973579 
     -0.337716489288 
     -0.356435973579 
     -0.337716489288 
     -0.339325168031 
     -0.286908372303 
     -0.339325168031 
     -0.286908372303 
     -0.287721552637 
     -0.208166944448 
     -0.287721552637 
     -0.208166944448 
     -0.207954828590 
     -0.108746203966 
     -0.207954828590 
     -0.108746203966 
     -0.107494046024 
      0.001635971084 
     -0.107494046024 
      0.001635971084 
      0.003813283910 
      0.112117625554 
      0.003813283910 
      0.112117625554 
      0.114986985126 
      0.212495664078 
      0.114986985126 
      0.212495664078 
      0.215869318432 
      0.290440586217 
      0.215869318432 
      0.290440586217 
      0.293544647776 
      0.350142410836 
      0.293544647776 
      0.350142410836 
      0.354636024904 
      0.333429199035 
      0.354636024904 
      0.333429199035 
      0.333429199035 
      0.354636024904 
      0.333429199035 
      0.354636024904 
      0.350142410836 
      0.293544647776 
      0.350142410836 
      0.293544647776 
      0.290440586217 
      0.215869318432 
      0.290440586217 
      0.215869318432 
      0.212495664078 
      0.114986985126 
      0.212495664078 
      0.114986985126 
      0.112117625554 
      0.003813283910 
      0.112117625554 
      0.003813283910 
      0.001635971084 
     -0.107494046024 
      0.001635971084 
     -0.107494046024 
     -0.108746203966 
     -0.207954828590 
     -0.108746203966 
     -0.207954828590 
     -0.208166944448 
     -0.287721552637 
     -0.208166944448 
     -0.287721552637 
     -0.286908372303 
     -0.339325168031 
     -0.286908372303 
     -0.339325168031 
     -0.337716489288 
     -0.356435973579 
     -0.337716489288 
     -0.356435973579 
     -0.356435973579 
     -0.337716489288 
     -0.356435973579 
     -0.337716489288 
     -0.339325168031 
     -0.286908372303 
     -0.339325168031 
     -0.286908372303 
     -0.287721552637 
     -0.208166944448 
     -0.287721552637 
     -0.208166944448 
     -0.207954828590 
     -0.108746203966 
     -0.207954828590 
     -0.108746203966 
     -0.107494046024 
      0.001635971084 
     -0.107494046024 
      0.001635971084 
      0.003813283910 
      0.112117625554 
      0.003813283910 
      0.112117625554 
      0.114986985126 
      0.212495664078 
      0.114986985126 
      0.212495664078 
      0.215869318432 
      0.290440586217 
      0.215869318432 
      0.290440586217 
      0.293544647776 