# vtk DataFile Version 2.0
NDG-FEM NonhydrostaticStandingWave2d Simulation
ASCII
DATASET UNSTRUCTURED_GRID

POINTS 1800 double
0.00000000000000000000  0.00000000000000000000  0.00000000000000000000
1.00000000000000000000  0.00000000000000000000  0.00000000000000000000
2.00000000000000000000  0.00000000000000000000  0.00000000000000000000
0.00000000000000000000  1.00000000000000000000  0.00000000000000000000
1.00000000000000000000  1.00000000000000000000  0.00000000000000000000
0.00000000000000000000  2.00000000000000000000  0.00000000000000000000
2.00000000000000000000  0.00000000000000000000  0.00000000000000000000
3.00000000000000000000  0.00000000000000000000  0.00000000000000000000
4.00000000000000000000  0.00000000000000000000  0.00000000000000000000
2.00000000000000000000  1.00000000000000000000  0.00000000000000000000
3.00000000000000000000  1.00000000000000000000  0.00000000000000000000
2.00000000000000000000  2.00000000000000000000  0.00000000000000000000
4.00000000000000000000  0.00000000000000000000  0.00000000000000000000
5.00000000000000000000  0.00000000000000000000  0.00000000000000000000
6.00000000000000000000  0.00000000000000000000  0.00000000000000000000
4.00000000000000000000  1.00000000000000000000  0.00000000000000000000
5.00000000000000000000  1.00000000000000000000  0.00000000000000000000
4.00000000000000000000  2.00000000000000000000  0.00000000000000000000
6.00000000000000000000  0.00000000000000000000  0.00000000000000000000
7.00000000000000000000  0.00000000000000000000  0.00000000000000000000
8.00000000000000000000  0.00000000000000000000  0.00000000000000000000
6.00000000000000000000  1.00000000000000000000  0.00000000000000000000
7.00000000000000000000  1.00000000000000000000  0.00000000000000000000
6.00000000000000000000  2.00000000000000000000  0.00000000000000000000
8.00000000000000000000  0.00000000000000000000  0.00000000000000000000
9.00000000000000000000  0.00000000000000000000  0.00000000000000000000
10.00000000000000000000  0.00000000000000000000  0.00000000000000000000
8.00000000000000000000  1.00000000000000000000  0.00000000000000000000
9.00000000000000000000  1.00000000000000000000  0.00000000000000000000
8.00000000000000000000  2.00000000000000000000  0.00000000000000000000
10.00000000000000000000  0.00000000000000000000  0.00000000000000000000
11.00000000000000000000  0.00000000000000000000  0.00000000000000000000
12.00000000000000000000  0.00000000000000000000  0.00000000000000000000
10.00000000000000000000  1.00000000000000000000  0.00000000000000000000
11.00000000000000000000  1.00000000000000000000  0.00000000000000000000
10.00000000000000000000  2.00000000000000000000  0.00000000000000000000
12.00000000000000000000  0.00000000000000000000  0.00000000000000000000
13.00000000000000000000  0.00000000000000000000  0.00000000000000000000
14.00000000000000000000  0.00000000000000000000  0.00000000000000000000
12.00000000000000000000  1.00000000000000000000  0.00000000000000000000
13.00000000000000000000  1.00000000000000000000  0.00000000000000000000
12.00000000000000000000  2.00000000000000000000  0.00000000000000000000
14.00000000000000000000  0.00000000000000000000  0.00000000000000000000
15.00000000000000000000  0.00000000000000000000  0.00000000000000000000
16.00000000000000000000  0.00000000000000000000  0.00000000000000000000
14.00000000000000000000  1.00000000000000000000  0.00000000000000000000
15.00000000000000000000  1.00000000000000000000  0.00000000000000000000
14.00000000000000000000  2.00000000000000000000  0.00000000000000000000
16.00000000000000000000  0.00000000000000000000  0.00000000000000000000
17.00000000000000000000  0.00000000000000000000  0.00000000000000000000
18.00000000000000000000  0.00000000000000000000  0.00000000000000000000
16.00000000000000000000  1.00000000000000000000  0.00000000000000000000
17.00000000000000000000  1.00000000000000000000  0.00000000000000000000
16.00000000000000000000  2.00000000000000000000  0.00000000000000000000
18.00000000000000000000  0.00000000000000000000  0.00000000000000000000
19.00000000000000000000  0.00000000000000000000  0.00000000000000000000
20.00000000000000000000  0.00000000000000000000  0.00000000000000000000
18.00000000000000000000  1.00000000000000000000  0.00000000000000000000
19.00000000000000000000  1.00000000000000000000  0.00000000000000000000
18.00000000000000000000  2.00000000000000000000  0.00000000000000000000
20.00000000000000000000  0.00000000000000000000  0.00000000000000000000
21.00000000000000000000  0.00000000000000000000  0.00000000000000000000
22.00000000000000000000  0.00000000000000000000  0.00000000000000000000
20.00000000000000000000  1.00000000000000000000  0.00000000000000000000
21.00000000000000000000  1.00000000000000000000  0.00000000000000000000
20.00000000000000000000  2.00000000000000000000  0.00000000000000000000
22.00000000000000000000  0.00000000000000000000  0.00000000000000000000
23.00000000000000000000  0.00000000000000000000  0.00000000000000000000
24.00000000000000000000  0.00000000000000000000  0.00000000000000000000
22.00000000000000000000  1.00000000000000000000  0.00000000000000000000
23.00000000000000000000  1.00000000000000000000  0.00000000000000000000
22.00000000000000000000  2.00000000000000000000  0.00000000000000000000
24.00000000000000000000  0.00000000000000000000  0.00000000000000000000
25.00000000000000000000  0.00000000000000000000  0.00000000000000000000
26.00000000000000000000  0.00000000000000000000  0.00000000000000000000
24.00000000000000000000  1.00000000000000000000  0.00000000000000000000
25.00000000000000000000  1.00000000000000000000  0.00000000000000000000
24.00000000000000000000  2.00000000000000000000  0.00000000000000000000
26.00000000000000000000  0.00000000000000000000  0.00000000000000000000
27.00000000000000000000  0.00000000000000000000  0.00000000000000000000
28.00000000000000000000  0.00000000000000000000  0.00000000000000000000
26.00000000000000000000  1.00000000000000000000  0.00000000000000000000
27.00000000000000000000  1.00000000000000000000  0.00000000000000000000
26.00000000000000000000  2.00000000000000000000  0.00000000000000000000
28.00000000000000000000  0.00000000000000000000  0.00000000000000000000
29.00000000000000000000  0.00000000000000000000  0.00000000000000000000
30.00000000000000000000  0.00000000000000000000  0.00000000000000000000
28.00000000000000000000  1.00000000000000000000  0.00000000000000000000
29.00000000000000000000  1.00000000000000000000  0.00000000000000000000
28.00000000000000000000  2.00000000000000000000  0.00000000000000000000
30.00000000000000000000  0.00000000000000000000  0.00000000000000000000
31.00000000000000000000  0.00000000000000000000  0.00000000000000000000
32.00000000000000000000  0.00000000000000000000  0.00000000000000000000
30.00000000000000000000  1.00000000000000000000  0.00000000000000000000
31.00000000000000000000  1.00000000000000000000  0.00000000000000000000
30.00000000000000000000  2.00000000000000000000  0.00000000000000000000
32.00000000000000000000  0.00000000000000000000  0.00000000000000000000
33.00000000000000000000  0.00000000000000000000  0.00000000000000000000
34.00000000000000000000  0.00000000000000000000  0.00000000000000000000
32.00000000000000000000  1.00000000000000000000  0.00000000000000000000
33.00000000000000000000  1.00000000000000000000  0.00000000000000000000
32.00000000000000000000  2.00000000000000000000  0.00000000000000000000
34.00000000000000000000  0.00000000000000000000  0.00000000000000000000
35.00000000000000000000  0.00000000000000000000  0.00000000000000000000
36.00000000000000000000  0.00000000000000000000  0.00000000000000000000
34.00000000000000000000  1.00000000000000000000  0.00000000000000000000
35.00000000000000000000  1.00000000000000000000  0.00000000000000000000
34.00000000000000000000  2.00000000000000000000  0.00000000000000000000
36.00000000000000000000  0.00000000000000000000  0.00000000000000000000
37.00000000000000000000  0.00000000000000000000  0.00000000000000000000
38.00000000000000000000  0.00000000000000000000  0.00000000000000000000
36.00000000000000000000  1.00000000000000000000  0.00000000000000000000
37.00000000000000000000  1.00000000000000000000  0.00000000000000000000
36.00000000000000000000  2.00000000000000000000  0.00000000000000000000
38.00000000000000000000  0.00000000000000000000  0.00000000000000000000
39.00000000000000000000  0.00000000000000000000  0.00000000000000000000
40.00000000000000000000  0.00000000000000000000  0.00000000000000000000
38.00000000000000000000  1.00000000000000000000  0.00000000000000000000
39.00000000000000000000  1.00000000000000000000  0.00000000000000000000
38.00000000000000000000  2.00000000000000000000  0.00000000000000000000
40.00000000000000000000  0.00000000000000000000  0.00000000000000000000
41.00000000000000000000  0.00000000000000000000  0.00000000000000000000
42.00000000000000000000  0.00000000000000000000  0.00000000000000000000
40.00000000000000000000  1.00000000000000000000  0.00000000000000000000
41.00000000000000000000  1.00000000000000000000  0.00000000000000000000
40.00000000000000000000  2.00000000000000000000  0.00000000000000000000
42.00000000000000000000  0.00000000000000000000  0.00000000000000000000
43.00000000000000000000  0.00000000000000000000  0.00000000000000000000
44.00000000000000000000  0.00000000000000000000  0.00000000000000000000
42.00000000000000000000  1.00000000000000000000  0.00000000000000000000
43.00000000000000000000  1.00000000000000000000  0.00000000000000000000
42.00000000000000000000  2.00000000000000000000  0.00000000000000000000
44.00000000000000000000  0.00000000000000000000  0.00000000000000000000
45.00000000000000000000  0.00000000000000000000  0.00000000000000000000
46.00000000000000000000  0.00000000000000000000  0.00000000000000000000
44.00000000000000000000  1.00000000000000000000  0.00000000000000000000
45.00000000000000000000  1.00000000000000000000  0.00000000000000000000
[...]
POINT_DATA 1800
SCALARS  H  double
LOOKUP_TABLE default
      7.631399196096 
      7.630241870946 
      7.627507516613 
      7.631443454499 
      7.630267303576 
      7.631429004757 
      7.627321267401 
      7.622747129245 
      7.617321107231 
      7.627392387066 
      7.622761541431 
      7.627375035816 
      7.617234526337 
      7.611374174224 
      7.605648770247 
      7.617272466917 
      7.611369272720 
      7.617262838072 
      7.605688114063 
      7.600869354171 
      7.596903762430 
      7.605679615180 
      7.600850681492 
      7.605684790978 
      7.597042692777 
      7.594787748178 
      7.593721142649 
      7.596991790834 
      7.594761704396 
      7.597008527239 
      7.593901059417 
      7.594786131852 
      7.596901275893 
      7.593827523489 
      7.594761465677 
      7.593848764314 
      7.597061527881 
      7.600865503226 
      7.605635862045 
      7.596990392821 
      7.600850682130 
      7.597007735931 
      7.605727077158 
      7.611365557778 
      7.617298990140 
      7.605682612605 
      7.611367126702 
      7.605689680450 
      7.617286772225 
      7.622737765904 
      7.627488533986 
      7.617286522420 
      7.622756596374 
      7.617280461058 
      7.627365331593 
      7.630231845451 
      7.631574896262 
      7.627412747128 
      7.630260487172 
      7.627395436827 
      7.631381352234 
      7.630235662632 
      7.627504345038 
      7.631459434165 
      7.630261193287 
      7.631437274546 
      7.627324836779 
      7.622746416200 
      7.617316934255 
      7.627400667057 
      7.622758183134 
      7.627382420721 
      7.617232177310 
      7.611373867188 
      7.605645234345 
      7.617273844941 
      7.611368660639 
      7.617266831613 
      7.605685463706 
      7.600870517255 
      7.596903202781 
      7.605678080201 
      7.600851637764 
      7.605684757137 
      7.597042038980 
      7.594787657758 
      7.593721246987 
      7.596991479135 
      7.594761784525 
      7.597008785489 
      7.593901123963 
      7.594786125032 
      7.596901225767 
      7.593827525587 
      7.594761486134 
      7.593848739235 
      7.597061518419 
      7.600865512231 
      7.605635845665 
      7.596990381638 
      7.600850688196 
      7.597007712408 
      7.605727069211 
      7.611365559308 
      7.617298988636 
      7.605682608762 
      7.611367127713 
      7.605689677672 
      7.617286770870 
      7.622737766001 
      7.627488533971 
      7.617286521859 
      7.622756596498 
      7.617280460993 
      7.627365331463 
      7.630231845452 
      7.631574896270 
      7.627412747076 
      7.630260487185 
      7.627395436844 
      7.631381352225 
      7.630235662632 
      7.627504345039 
      7.631459434162 
      7.630261193288 
      7.631437274549 
      7.627324836779 
      7.622746416200 
      7.617316934255 
      7.627400667057 
      7.622758183134 
      7.627382420721 
      7.617232177310 
      7.611373867188 
      7.605645234345 
      7.617273844941 
      7.611368660639 
      7.617266831613 
      7.605685463706 
      7.600870517255 
      7.596903202781 
      7.605678080201 
      7.600851637764 
      7.605684757137 
      7.597042038980 
      7.594787657758 
      7.593721246987 
      7.596991479135 
      7.594761784525 
      7.597008785489 
      7.593901123963 
      7.594786125032 
      7.596901225767 
      7.593827525587 
      7.594761486134 
      7.593848739235 
      7.597061518419 
      7.600865512231 
      7.605635845665 
      7.596990381638 
      7.600850688196 
      7.597007712408 
      7.605727069211 
      7.611365559308 
      7.617298988636 
      7.605682608762 
      7.611367127713 
      7.605689677672 
      7.617286770870 
      7.622737766001 
      7.627488533971 
      7.617286521859 
      7.622756596498 
      7.617280460993 
      7.627365331463 
      7.630231845452 
      7.631574896270 
      7.627412747076 
      7.630260487185 
      7.627395436844 
      7.631381352225 
      7.630235662632 
      7.627504345039 
      7.631459434162 
      7.630261193288 
      7.631437274549 
      7.627324836779 
      7.622746416200 
      7.617316934255 
      7.627400667057 
      7.622758183134 
      7.627382420721 
      7.617232177310 
      7.611373867188 
      7.605645234345 
      7.617273844941 
      7.611368660639 
      7.617266831613 
      7.605685463706 
      7.600870517255 
      7.596903202781 
      7.605678080201 
      7.600851637764 
      7.605684757137 
      7.597042038980 
      7.594787657758 
      7.593721246987 
      7.596991479135 
      7.594761784525 
      7.597008785489 
      7.593901123963 
      7.594786125032 
      7.596901225767 
      7.593827525587 
      7.594761486134 
      7.593848739235 
      7.597061518419 
      7.600865512231 
      7.605635845665 
      7.596990381638 
      7.600850688196 
      7.597007712408 
      7.605727069211 
      7.611365559308 
      7.617298988636 
      7.605682608762 
      7.611367127713 
      7.605689677672 
      7.617286770870 
      7.622737766001 
      7.627488533971 
      7.617286521859 
      7.622756596498 
      7.617280460993 
      7.627365331463 
      7.630231845451 
      7.631574896270 
      7.627412747076 
      7.630260487185 
      7.627395436844 
      7.631381352226 
      7.630235662632 
      7.627504345033 
      7.631459434161 
      7.630261193290 
      7.631437274549 
      7.627324836777 
      7.622746416203 
      7.617316934140 
      7.627400667048 
      7.622758183144 
      7.627382420727 
      7.617232177245 
      7.611373867271 
      7.605645232992 
      7.617273844911 
      7.611368660624 
      7.617266831724 
      7.605685462775 
      7.600870518485 
      7.596903191282 
      7.605678080315 
      7.600851637170 
      7.605684758752 
      7.597042029739 
      7.594787669909 
      7.593721169579 
      7.596991480876 
      7.594761783635 
      7.597008802994 
      7.593901054491 
      7.594786205852 
      7.596900763028 
      7.593827515364 
      7.594761561944 
      7.593848814371 
      7.597061019001 
      7.600866011535 
      7.605635193314 
      7.596990005918 
      7.600851547728 
      7.597007333115 
      7.605724815878 
      7.611364024340 
      7.617303332923 
      7.605680718937 
      7.611366809592 
      7.605688132680 
      7.617287140118 
      7.622734584734 
      7.627498588184 
      7.617284724404 
      7.622755526944 
      7.617280743303 
      7.627365859827 
      7.630222886135 
      7.631559363089 
      7.627415432835 
      7.630263769376 
      7.627393753104 
      7.627396560147 
      7.627421252407 
      7.627419830378 
      7.630258314543 
      7.630230797069 
      7.631517857374 
      7.617281045373 
      7.617298909517 
      7.617307293757 
      7.622755726921 
      7.622740988049 
      7.627440278552 
      7.605684682930 
      7.605687601830 
      7.605708996541 
      7.611365106797 
      7.611370732011 
      7.617282029587 
      7.596996782954 
      7.596983635829 
      7.597010014827 
      7.600849365056 
      7.600869234263 
      7.605659059460 
      7.593835001287 
      7.593811729426 
      7.593832581105 
      7.594763824401 
      7.594788996112 
      7.596950163603 
      7.596997794754 
      7.596972007184 
      7.596978893252 
      7.594766738100 
      7.594789631022 
      7.593775915056 
      7.605683116061 
      7.605663035360 
      7.605652424395 
      7.600857374502 
      7.600871080743 
      7.596943913279 
      7.617276848334 
      7.617270101837 
      7.617245354224 
      7.611372543018 
      7.611371953909 
      7.605659278804 
      7.627398604046 
      7.627409731307 
      7.627381001512 
      7.622758253845 
      7.622741969009 
      7.617299359464 
      7.631450354658 
      7.631476640726 
      7.631456169808 
      7.630257404556 
      7.630230681471 
      7.627459348422 
      7.627399938085 
      7.627430419644 
      7.627426045933 
      7.630254777211 
      7.630229181285 
      7.631518504811 
      7.617277347080 
      7.617298432119 
      7.617310703243 
      7.622751477679 
      7.622738639221 
      7.627444506598 
      7.605681929348 
      7.605685599855 
      7.605709286015 
      7.611364097106 
      7.611368783735 
      7.617286635298 
      7.596996407205 
      7.596983354747 
      7.597010168890 
      7.600850247657 
      7.600869080360 
      7.605659879645 
      7.593835115985 
      7.593811702024 
      7.593832465549 
      7.594763913226 
      7.594788993425 
      7.596950610394 
      7.596997770958 
      7.596971988567 
      7.596978858767 
      7.594766745417 
      7.594789657398 
      7.593775958913 
      7.605683105416 
      7.605663031387 
      7.605652422146 
      7.600857376494 
      7.600871083502 
      7.596943900569 
      7.617276847024 
      7.617270101354 
      7.617245354424 
      7.611372543550 
      7.611371953815 
      7.605659276479 
      7.627398603971 
      7.627409731261 
      7.627381001564 
      7.622758253936 
      7.622741968970 
      7.617299359350 
      7.631450354657 
      7.631476640723 
      7.631456169813 
      7.630257404567 
      7.630230681467 
      7.627459348432 
      7.627399938085 
      7.627430419644 
      7.627426045933 
      7.630254777212 
      7.630229181285 
      7.631518504813 
      7.617277347080 
      7.617298432119 
      7.617310703243 
      7.622751477679 
      7.622738639221 
      7.627444506598 
      7.605681929348 
      7.605685599855 
      7.605709286015 
      7.611364097106 
      7.611368783735 
      7.617286635298 
      7.596996407205 
      7.596983354747 
      7.597010168890 
      7.600850247657 
      7.600869080360 
      7.605659879645 
      7.593835115985 
      7.593811702024 
      7.593832465549 
      7.594763913226 
      7.594788993425 
      7.596950610394 
      7.596997770958 
      7.596971988567 
      7.596978858767 
      7.594766745417 
      7.594789657398 
      7.593775958913 
      7.605683105416 
      7.605663031387 
      7.605652422146 
      7.600857376494 
      7.600871083502 
      7.596943900569 
      7.617276847024 
      7.617270101354 
      7.617245354424 
      7.611372543550 
      7.611371953815 
      7.605659276479 
      7.627398603971 
      7.627409731261 
      7.627381001564 
      7.622758253936 
      7.622741968970 
      7.617299359350 
      7.631450354657 
      7.631476640723 
      7.631456169813 
      7.630257404567 
      7.630230681467 
      7.627459348432 
      7.627399938085 
      7.627430419644 
      7.627426045933 
      7.630254777212 
      7.630229181285 
      7.631518504813 
      7.617277347080 
      7.617298432119 
      7.617310703243 
      7.622751477679 
      7.622738639221 
      7.627444506598 
      7.605681929348 
      7.605685599855 
      7.605709286015 
      7.611364097106 
      7.611368783735 
      7.617286635298 
      7.596996407205 
      7.596983354747 
      7.597010168890 
      7.600850247657 
      7.600869080360 
      7.605659879645 
      7.593835115985 
      7.593811702024 
      7.593832465549 
      7.594763913226 
      7.594788993425 
      7.596950610394 
      7.596997770958 
      7.596971988567 
      7.596978858767 
      7.594766745417 
      7.594789657398 
      7.593775958913 
      7.605683105416 
      7.605663031387 
      7.605652422146 
      7.600857376494 
      7.600871083502 
      7.596943900569 
      7.617276847024 
      7.617270101354 
      7.617245354424 
      7.611372543550 
      7.611371953815 
      7.605659276479 
      7.627398603971 
      7.627409731261 
      7.627381001563 
      7.622758253936 
      7.622741968970 
      7.617299359350 
      7.631450354657 
      7.631476640721 
      7.631456169811 
      7.630257404567 
      7.630230681467 
      7.627459348432 
      7.627399938077 
      7.627430419632 
      7.627426045919 
      7.630254777214 
      7.630229181284 
      7.631518504815 
      7.617277346969 
      7.617298432040 
      7.617310703198 
      7.622751477684 
      7.622738639208 
      7.627444506629 
      7.605681928165 
      7.605685599468 
      7.605709286548 
      7.611364097007 
      7.611368783564 
      7.617286635633 
      7.596996397246 
      7.596983352308 
      7.597010176777 
      7.600850246126 
      7.600869077962 
      7.605659883089 
      7.593835046017 
      7.593811657305 
      7.593832465035 
      7.594763903656 
      7.594788968898 
      7.596950642370 
      7.596997258968 
      7.596971412117 
      7.596978261749 
      7.594766779878 
      7.594789613154 
      7.593776078927 
      7.605681275835 
      7.605661152365 
      7.605651143443 
      7.600858322955 
      7.600871915467 
      7.596943103344 
      7.617278321846 
      7.617269474147 
      7.617246291428 
      7.611372634557 
      7.611371311964 
      7.605656441085 
      7.627405599193 
      7.627415067552 
      7.627382033100 
      7.622758394631 
      7.622741095415 
      7.617299179052 
      7.631439246650 
      7.631493995224 
      7.631463242709 
      7.630258226180 
      7.630222806315 
      7.627458287028 
      7.631455879231 
      7.630226652335 
      7.627466369519 
      7.631473998059 
      7.630259003127 
      7.631429336718 
      7.627388544187 
      7.622743046375 
      7.617313573819 
      7.627409448630 
      7.622755751492 
      7.627380037407 
      7.617256451447 
      7.611372640870 
      7.605672830982 
      7.617271680056 
      7.611371184136 
      7.617258794143 
      7.605668686447 
      7.600869946112 
      7.596948463176 
      7.605665627169 
      7.600854894380 
      7.605673546851 
      7.596991399550 
      7.594788244159 
      7.593769870524 
      7.596977555506 
      7.594763906212 
      7.597003106730 
      7.593834764217 
      7.594787919239 
      7.596936401527 
      7.593816870437 
      7.594763469029 
      7.593852085487 
      7.597000049841 
      7.600868706361 
      7.605644399274 
      7.596984941561 
      7.600852776203 
      7.597018322534 
      7.605691325161 
      7.611369396375 
      7.617275879799 
      7.605683437463 
      7.611368330879 
      7.605702010324 
      7.617292881290 
      7.622740278450 
      7.627441374333 
      7.617294128793 
      7.622755500973 
      7.617288750447 
      7.627414937043 
      7.630231162657 
      7.631523475730 
      7.627425501197 
      7.630257313124 
      7.627397352309 
      7.631454624923 
      7.630231955033 
      7.627471366547 
      7.631472029227 
      7.630258224349 
      7.631433651034 
      7.627388835359 
      7.622742018566 
      7.617315210521 
      7.627406566308 
      7.622757497390 
      7.627374708746 
      7.617260321017 
      7.611370999940 
      7.605673000326 
      7.617270025680 
      7.611370196832 
      7.617256452978 
      7.605669878576 
      7.600869651515 
      7.596948984497 
      7.605666853607 
      7.600853941518 
      7.605674668200 
      7.596991916007 
      7.594788248098 
      7.593769702416 
      7.596978161353 
      7.594763882807 
      7.597003681752 
      7.593834759021 
      7.594787964120 
      7.596936324181 
      7.593816882820 
      7.594763502944 
      7.593852078757 
      7.597000021698 
      7.600868713204 
      7.605644390060 
      7.596984927331 
      7.600852782648 
      7.597018315629 
      7.605691320403 
      7.611369396797 
      7.617275879240 
      7.605683434973 
      7.611368331649 
      7.605702010011 
      7.617292880883 
      7.622740278466 
      7.627441374300 
      7.617294128550 
      7.622755501052 
      7.617288750491 
      7.627414937022 
      7.630231162658 
      7.631523475725 
      7.627425501182 
      7.630257313130 
      7.627397352320 
      7.631454624923 
      7.630231955033 
      7.627471366547 
      7.631472029226 
      7.630258224349 
      7.631433651036 
      7.627388835359 
      7.622742018566 
      7.617315210521 
      7.627406566308 
      7.622757497390 
      7.627374708746 
      7.617260321017 
      7.611370999940 
      7.605673000326 
      7.617270025680 
      7.611370196832 
      7.617256452979 
      7.605669878576 
      7.600869651515 
      7.596948984497 
      7.605666853607 
      7.600853941518 
      7.605674668200 
      7.596991916007 
      7.594788248098 
      7.593769702416 
      7.596978161353 
      7.594763882807 
      7.597003681752 
      7.593834759021 
      7.594787964120 
      7.596936324181 
      7.593816882820 
      7.594763502944 
      7.593852078757 
      7.597000021698 
      7.600868713204 
      7.605644390060 
      7.596984927331 
      7.600852782648 
      7.597018315629 
      7.605691320403 
      7.611369396797 
      7.617275879240 
      7.605683434973 
      7.611368331649 
      7.605702010011 
      7.617292880883 
      7.622740278466 
      7.627441374300 
      7.617294128550 
      7.622755501052 
      7.617288750491 
      7.627414937022 
      7.630231162658 
      7.631523475725 
      7.627425501182 
      7.630257313130 
      7.627397352320 
      7.631454624923 
      7.630231955033 
      7.627471366547 
      7.631472029226 
      7.630258224349 
      7.631433651036 
      7.627388835359 
      7.622742018566 
      7.617315210521 
      7.627406566308 
      7.622757497390 
      7.627374708746 
      7.617260321017 
      7.611370999940 
      7.605673000326 
      7.617270025680 
      7.611370196832 
      7.617256452979 
      7.605669878576 
      7.600869651515 
      7.596948984497 
      7.605666853607 
      7.600853941518 
      7.605674668200 
      7.596991916007 
      7.594788248098 
      7.593769702416 
      7.596978161353 
      7.594763882807 
      7.597003681752 
      7.593834759021 
      7.594787964120 
      7.596936324181 
      7.593816882820 
      7.594763502944 
      7.593852078757 
      7.597000021698 
      7.600868713204 
      7.605644390060 
      7.596984927331 
      7.600852782648 
      7.597018315629 
      7.605691320403 
      7.611369396797 
      7.617275879240 
      7.605683434973 
      7.611368331649 
      7.605702010011 
      7.617292880883 
      7.622740278466 
      7.627441374299 
      7.617294128550 
      7.622755501052 
      7.617288750491 
      7.627414937022 
      7.630231162658 
      7.631523475723 
      7.627425501182 
      7.630257313130 
      7.627397352320 
      7.631454624922 
      7.630231955034 
      7.627471366527 
      7.631472029228 
      7.630258224344 
      7.631433651037 
      7.627388835359 
      7.622742018572 
      7.617315210391 
      7.627406566335 
      7.622757497321 
      7.627374708765 
      7.617260321023 
      7.611370999998 
      7.605672999940 
      7.617270025981 
      7.611370196195 
      7.617256453351 
      7.605669879013 
      7.600869651411 
      7.596948984501 
      7.605666856501 
      7.600853937250 
      7.605674673688 
      7.596991925729 
      7.594788240190 
      7.593769657641 
      7.596978182164 
      7.594763868289 
      7.597003725208 
      7.593834816364 
      7.594787966711 
      7.596935673294 
      7.593816934630 
      7.594763577894 
      7.593852175731 
      7.596999700784 
      7.600869366864 
      7.605643975344 
      7.596984482620 
      7.600853616417 
      7.597018013843 
      7.605689990299 
      7.611367877014 
      7.617279096898 
      7.605681770858 
      7.611368781990 
      7.605702001837 
      7.617294017539 
      7.622738554277 
      7.627445689382 
      7.617295377400 
      7.622752745225 
      7.617286247545 
      7.627424734306 
      7.630229648160 
      7.631519642405 
      7.627430704961 
      7.630254977795 
      7.627395374254 
      7.627395374254 
      7.627430704961 
      7.627424734306 
      7.630254977795 
      7.630229648160 
      7.631519642405 