# vtk DataFile Version 2.0
NDG-FEM NonhydrostaticStandingWave2d Simulation
ASCII
DATASET UNSTRUCTURED_GRID

POINTS 1350 double
0.00000000000000000000  0.00000000000000000000  0.00000000000000000000
1.00000000000000000000  0.00000000000000000000  0.00000000000000000000
2.00000000000000000000  0.00000000000000000000  0.00000000000000000000
0.00000000000000000000  1.00000000000000000000  0.00000000000000000000
1.00000000000000000000  1.00000000000000000000  0.00000000000000000000
2.00000000000000000000  1.00000000000000000000  0.00000000000000000000
0.00000000000000000000  2.00000000000000000000  0.00000000000000000000
1.00000000000000000000  2.00000000000000000000  0.00000000000000000000
2.00000000000000000000  2.00000000000000000000  0.00000000000000000000
2.00000000000000000000  0.00000000000000000000  0.00000000000000000000
3.00000000000000000000  0.00000000000000000000  0.00000000000000000000
4.00000000000000000000  0.00000000000000000000  0.00000000000000000000
2.00000000000000000000  1.00000000000000000000  0.00000000000000000000
3.00000000000000000000  1.00000000000000000000  0.00000000000000000000
4.00000000000000000000  1.00000000000000000000  0.00000000000000000000
2.00000000000000000000  2.00000000000000000000  0.00000000000000000000
3.00000000000000000000  2.00000000000000000000  0.00000000000000000000
4.00000000000000000000  2.00000000000000000000  0.00000000000000000000
4.00000000000000000000  0.00000000000000000000  0.00000000000000000000
5.00000000000000000000  0.00000000000000000000  0.00000000000000000000
6.00000000000000000000  0.00000000000000000000  0.00000000000000000000
4.00000000000000000000  1.00000000000000000000  0.00000000000000000000
5.00000000000000000000  1.00000000000000000000  0.00000000000000000000
6.00000000000000000000  1.00000000000000000000  0.00000000000000000000
4.00000000000000000000  2.00000000000000000000  0.00000000000000000000
5.00000000000000000000  2.00000000000000000000  0.00000000000000000000
6.00000000000000000000  2.00000000000000000000  0.00000000000000000000
6.00000000000000000000  0.00000000000000000000  0.00000000000000000000
7.00000000000000000000  0.00000000000000000000  0.00000000000000000000
8.00000000000000000000  0.00000000000000000000  0.00000000000000000000
6.00000000000000000000  1.00000000000000000000  0.00000000000000000000
7.00000000000000000000  1.00000000000000000000  0.00000000000000000000
8.00000000000000000000  1.00000000000000000000  0.00000000000000000000
6.00000000000000000000  2.00000000000000000000  0.00000000000000000000
7.00000000000000000000  2.00000000000000000000  0.00000000000000000000
8.00000000000000000000  2.00000000000000000000  0.00000000000000000000
8.00000000000000000000  0.00000000000000000000  0.00000000000000000000
9.00000000000000000000  0.00000000000000000000  0.00000000000000000000
10.00000000000000000000  0.00000000000000000000  0.00000000000000000000
8.00000000000000000000  1.00000000000000000000  0.00000000000000000000
9.00000000000000000000  1.00000000000000000000  0.00000000000000000000
10.00000000000000000000  1.00000000000000000000  0.00000000000000000000
8.00000000000000000000  2.00000000000000000000  0.00000000000000000000
9.00000000000000000000  2.00000000000000000000  0.00000000000000000000
10.00000000000000000000  2.00000000000000000000  0.00000000000000000000
10.00000000000000000000  0.00000000000000000000  0.00000000000000000000
11.00000000000000000000  0.00000000000000000000  0.00000000000000000000
12.00000000000000000000  0.00000000000000000000  0.00000000000000000000
10.00000000000000000000  1.00000000000000000000  0.00000000000000000000
11.00000000000000000000  1.00000000000000000000  0.00000000000000000000
12.00000000000000000000  1.00000000000000000000  0.00000000000000000000
10.00000000000000000000  2.00000000000000000000  0.00000000000000000000
11.00000000000000000000  2.00000000000000000000  0.00000000000000000000
12.00000000000000000000  2.00000000000000000000  0.00000000000000000000
12.00000000000000000000  0.00000000000000000000  0.00000000000000000000
13.00000000000000000000  0.00000000000000000000  0.00000000000000000000
14.00000000000000000000  0.00000000000000000000  0.00000000000000000000
12.00000000000000000000  1.00000000000000000000  0.00000000000000000000
13.00000000000000000000  1.00000000000000000000  0.00000000000000000000
14.00000000000000000000  1.00000000000000000000  0.00000000000000000000
12.00000000000000000000  2.00000000000000000000  0.00000000000000000000
13.00000000000000000000  2.00000000000000000000  0.00000000000000000000
14.00000000000000000000  2.00000000000000000000  0.00000000000000000000
14.00000000000000000000  0.00000000000000000000  0.00000000000000000000
15.00000000000000000000  0.00000000000000000000  0.00000000000000000000
16.00000000000000000000  0.00000000000000000000  0.00000000000000000000
14.00000000000000000000  1.00000000000000000000  0.00000000000000000000
15.00000000000000000000  1.00000000000000000000  0.00000000000000000000
16.00000000000000000000  1.00000000000000000000  0.00000000000000000000
14.00000000000000000000  2.00000000000000000000  0.00000000000000000000
15.00000000000000000000  2.00000000000000000000  0.00000000000000000000
16.00000000000000000000  2.00000000000000000000  0.00000000000000000000
16.00000000000000000000  0.00000000000000000000  0.00000000000000000000
17.00000000000000000000  0.00000000000000000000  0.00000000000000000000
18.00000000000000000000  0.00000000000000000000  0.00000000000000000000
16.00000000000000000000  1.00000000000000000000  0.00000000000000000000
17.00000000000000000000  1.00000000000000000000  0.00000000000000000000
18.00000000000000000000  1.00000000000000000000  0.00000000000000000000
16.00000000000000000000  2.00000000000000000000  0.00000000000000000000
17.00000000000000000000  2.00000000000000000000  0.00000000000000000000
18.00000000000000000000  2.00000000000000000000  0.00000000000000000000
18.00000000000000000000  0.00000000000000000000  0.00000000000000000000
19.00000000000000000000  0.00000000000000000000  0.00000000000000000000
20.00000000000000000000  0.00000000000000000000  0.00000000000000000000
18.00000000000000000000  1.00000000000000000000  0.00000000000000000000
19.00000000000000000000  1.00000000000000000000  0.00000000000000000000
20.00000000000000000000  1.00000000000000000000  0.00000000000000000000
18.00000000000000000000  2.00000000000000000000  0.00000000000000000000
19.00000000000000000000  2.00000000000000000000  0.00000000000000000000
20.00000000000000000000  2.00000000000000000000  0.00000000000000000000
20.00000000000000000000  0.00000000000000000000  0.00000000000000000000
21.00000000000000000000  0.00000000000000000000  0.00000000000000000000
22.00000000000000000000  0.00000000000000000000  0.00000000000000000000
20.00000000000000000000  1.00000000000000000000  0.00000000000000000000
21.00000000000000000000  1.00000000000000000000  0.00000000000000000000
22.00000000000000000000  1.00000000000000000000  0.00000000000000000000
20.00000000000000000000  2.00000000000000000000  0.00000000000000000000
21.00000000000000000000  2.00000000000000000000  0.00000000000000000000
22.00000000000000000000  2.00000000000000000000  0.00000000000000000000
22.00000000000000000000  0.00000000000000000000  0.00000000000000000000
23.00000000000000000000  0.00000000000000000000  0.00000000000000000000
24.00000000000000000000  0.00000000000000000000  0.00000000000000000000
22.00000000000000000000  1.00000000000000000000  0.00000000000000000000
23.00000000000000000000  1.00000000000000000000  0.00000000000000000000
24.00000000000000000000  1.00000000000000000000  0.00000000000000000000
22.00000000000000000000  2.00000000000000000000  0.00000000000000000000
23.00000000000000000000  2.00000000000000000000  0.00000000000000000000
24.00000000000000000000  2.00000000000000000000  0.00000000000000000000
24.00000000000000000000  0.00000000000000000000  0.00000000000000000000
25.00000000000000000000  0.00000000000000000000  0.00000000000000000000
26.00000000000000000000  0.00000000000000000000  0.00000000000000000000
24.00000000000000000000  1.00000000000000000000  0.00000000000000000000
25.00000000000000000000  1.00000000000000000000  0.00000000000000000000
26.00000000000000000000  1.00000000000000000000  0.00000000000000000000
24.00000000000000000000  2.00000000000000000000  0.00000000000000000000
25.00000000000000000000  2.00000000000000000000  0.00000000000000000000
26.00000000000000000000  2.00000000000000000000  0.00000000000000000000
26.00000000000000000000  0.00000000000000000000  0.00000000000000000000
27.00000000000000000000  0.00000000000000000000  0.00000000000000000000
28.00000000000000000000  0.00000000000000000000  0.00000000000000000000
26.00000000000000000000  1.00000000000000000000  0.00000000000000000000
27.00000000000000000000  1.00000000000000000000  0.00000000000000000000
28.00000000000000000000  1.00000000000000000000  0.00000000000000000000
26.00000000000000000000  2.00000000000000000000  0.00000000000000000000
27.00000000000000000000  2.00000000000000000000  0.00000000000000000000
28.00000000000000000000  2.00000000000000000000  0.00000000000000000000
28.00000000000000000000  0.00000000000000000000  0.00000000000000000000
29.00000000000000000000  0.00000000000000000000  0.00000000000000000000
30.00000000000000000000  0.00000000000000000000  0.00000000000000000000
28.00000000000000000000  1.00000000000000000000  0.00000000000000000000
29.00000000000000000000  1.00000000000000000000  0.00000000000000000000
30.00000000000000000000  1.00000000000000000000  0.00000000000000000000
28.00000000000000000000  2.00000000000000000000  0.00000000000000000000
29.00000000000000000000  2.00000000000000000000  0.00000000000000000000
30.00000000000000000000  2.00000000000000000000  0.00000000000000000000
30.00000000000000000000  0.00000000000000000000  0.00000000000000000000
31.00000000000000000000  0.00000000000000000000  0.00000000000000000000
[...]
POINT_DATA 1350
SCALARS  H  double
LOOKUP_TABLE default
      7.570498591222 
      7.570497732049 
      7.570496872876 
      7.570499429361 
      7.570498570188 
      7.570497711015 
      7.570500267500 
      7.570499408327 
      7.570498549154 
      7.570171979612 
      7.570221462377 
      7.572654480871 
      7.570178582610 
      7.570233109978 
      7.572667565258 
      7.570176750148 
      7.570228648251 
      7.572652475362 
      7.574821204314 
      7.608690433636 
      7.641658650024 
      7.574871744176 
      7.608647739663 
      7.641822446059 
      7.574759947216 
      7.608719545935 
      7.641432107039 
      7.640209372016 
      7.648751551413 
      7.661139932780 
      7.640279529838 
      7.648730941269 
      7.661126967677 
      7.640081714973 
      7.648714647936 
      7.661143956019 
      7.663299268373 
      7.663811511898 
      7.663819181502 
      7.663271876286 
      7.663780825312 
      7.663796213544 
      7.663240424682 
      7.663756029085 
      7.663766316739 
      7.663858142950 
      7.663941614966 
      7.664025086982 
      7.663861505634 
      7.663944977650 
      7.664028449665 
      7.663864868318 
      7.663948340334 
      7.664031812349 
      7.661778143865 
      7.650903694309 
      7.644097336839 
      7.661705266168 
      7.650947695616 
      7.644179971791 
      7.661719014851 
      7.650907257311 
      7.644064377983 
      7.646160693963 
      7.608618034560 
      7.593014311452 
      7.646334739344 
      7.608526326809 
      7.593037484785 
      7.646105711995 
      7.608575107104 
      7.592995915398 
      7.594082579273 
      7.575983767932 
      7.554674641792 
      7.594130014853 
      7.576002853234 
      7.554681431550 
      7.594085589168 
      7.575997466345 
      7.554676377178 
      7.554067990137 
      7.554085729160 
      7.554103468184 
      7.554067931586 
      7.554085670610 
      7.554103409634 
      7.554067873035 
      7.554085612059 
      7.554103351083 
      7.554107585374 
      7.554145408850 
      7.554183232326 
      7.554107487246 
      7.554145310722 
      7.554183134199 
      7.554107389119 
      7.554145212595 
      7.554183036071 
      7.554806466283 
      7.576176444608 
      7.594500307106 
      7.554808166335 
      7.576179295457 
      7.594498728403 
      7.554807746717 
      7.576176721316 
      7.594497847071 
      7.593415783760 
      7.608631262188 
      7.647443750842 
      7.593414824773 
      7.608627053436 
      7.647442958052 
      7.593413569081 
      7.608627203744 
      7.647440432555 
      7.645296471160 
      7.651803498601 
      7.662622695118 
      7.645295890889 
      7.651802997621 
      7.662622671501 
      7.645294008301 
      7.651802000406 
      7.662621929639 
      7.664898912973 
      7.664901480940 
      7.664904048907 
      7.664898814113 
      7.664901382080 
      7.664903950047 
      7.664898715252 
      7.664901283219 
      7.664903851186 
      7.664904051144 
      7.664906786260 
      7.664909521376 
      7.664903952284 
      7.664906687400 
      7.664909422516 
      7.664903853424 
      7.664906588540 
      7.664909323656 
      7.662633136465 
      7.651819793901 
      7.645317619985 
      7.662633044439 
      7.651819357587 
      7.645317705914 
      7.662632554856 
      7.651818656548 
      7.645316145670 
      7.647462996042 
      7.608646683229 
      7.593448979691 
      7.647463395942 
      7.608647333367 
      7.593452698337 
      7.647461425868 
      7.608646923499 
      7.593451753704 
      7.594533480785 
      7.576225747948 
      7.554862655009 
      7.594537147291 
      7.576233751528 
      7.554864243554 
      7.594536473574 
      7.576230578091 
      7.554864763751 
      7.554240981450 
      7.554238319284 
      7.554235657119 
      7.554241005656 
      7.554238343490 
      7.554235681325 
      7.554241029861 
      7.554238367696 
      7.554235705530 
      7.554235649309 
      7.554233101848 
      7.554230554387 
      7.554235673509 
      7.554233126048 
      7.554230578587 
      7.554235697710 
      7.554233150249 
      7.554230602788 
      7.554851251545 
      7.576221195177 
      7.594532240321 
      7.554856310061 
      7.576235849319 
      7.594535786813 
      7.554850571311 
      7.576232616669 
      7.594534946969 
      7.593447953215 
      7.608644715956 
      7.647461320936 
      7.593451455025 
      7.608650131496 
      7.647462433449 
      7.593450604825 
      7.608649997891 
      7.647462624301 
      7.645316531302 
      7.651819945468 
      7.662633379575 
      7.645317248931 
      7.651820219933 
      7.662633501100 
      7.645317421190 
      7.651820538088 
      7.662633590242 
      7.664909229139 
      7.664909154139 
      7.664909079138 
      7.664909223200 
      7.664909148200 
      7.664909073199 
      7.664909217261 
      7.664909142261 
      7.664909067260 
      7.664909079135 
      7.664909015992 
      7.664908952848 
      7.664909073196 
      7.664909010052 
      7.664908946909 
      7.664909067256 
      7.664909004113 
      7.664908940970 
      7.662633152685 
      7.651820030490 
      7.645317273172 
      7.662633146290 
      7.651820012059 
      7.645317382322 
      7.662633159674 
      7.651820067947 
      7.645317413779 
      7.647462350221 
      7.608649345945 
      7.593452906451 
      7.647462551635 
      7.608649479882 
      7.593453045724 
      7.647462538133 
      7.608649507094 
      7.593453031974 
      7.594537232523 
      7.576234313942 
      7.554862963016 
      7.594537436246 
      7.576234276244 
      7.554862982241 
      7.594537389461 
      7.576234346770 
      7.554862976404 
      7.554239678434 
      7.554238940002 
      7.554238201571 
      7.554239680329 
      7.554238941897 
      7.554238203466 
      7.554239682224 
      7.554238943792 
      7.554238205361 
      7.554238201430 
      7.554237472011 
      7.554236742591 
      7.554238203325 
      7.554237473906 
      7.554236744486 
      7.554238205220 
      7.554237475801 
      7.554236746381 
      7.554859909751 
      7.576228967714 
      7.594530497506 
      7.554859926983 
      7.576228858881 
      7.594530608491 
      7.554859922264 
      7.576228955836 
      7.594530577301 
      7.593446333483 
      7.608644126386 
      7.647451338590 
      7.593446391509 
      7.608644111154 
      7.647451485363 
      7.593446396261 
      7.608644193415 
      7.647451495263 
      7.645303442685 
      7.651810700191 
      7.662640388271 
      7.645303508849 
      7.651810585422 
      7.662640277934 
      7.645303561499 
      7.651810673736 
      7.662640307255 
      7.664925142805 
      7.664922624857 
      7.664920106909 
      7.664925128834 
      7.664922610886 
      7.664920092938 
      7.664925114862 
      7.664922596914 
      7.664920078966 
      7.664920106509 
      7.664917589145 
      7.664915071782 
      7.664920092538 
      7.664917575174 
      7.664915057811 
      7.664920078566 
      7.664917561203 
      7.664915043839 
      7.662630778323 
      7.651795008941 
      7.645281619523 
      7.662630371665 
      7.651794357698 
      7.645281258407 
      7.662630579895 
      7.651794832278 
      7.645281570232 
      7.647430972945 
      7.608622878559 
      7.593405048973 
      7.647430679577 
      7.608624500395 
      7.593406708105 
      7.647430968632 
      7.608625267330 
      7.593408163411 
      7.594489640428 
      7.576163051745 
      7.554799501066 
      7.594489816571 
      7.576173971951 
      7.554797426910 
      7.594491891353 
      7.576170911055 
      7.554799471889 
      7.554172898050 
      7.554137383609 
      7.554101869169 
      7.554173204530 
      7.554137690090 
      7.554102175649 
      7.554173511011 
      7.554137996570 
      7.554102482130 
      7.554097791766 
      7.554080111074 
      7.554062430381 
      7.554098085836 
      7.554080405144 
      7.554062724451 
      7.554098379906 
      7.554080699214 
      7.554063018521 
      7.554674371114 
      7.575984204559 
      7.594150694220 
      7.554672964599 
      7.575995211289 
      7.594150887306 
      7.554673545212 
      7.575992322557 
      7.594152633851 
      7.593041167774 
      7.608507027568 
      7.646430234797 
      7.593042623549 
      7.608508344910 
      7.646429962364 
      7.593043839499 
      7.608509320123 
      7.646430257446 
      7.644490258143 
      7.651249521343 
      7.660198284216 
      7.644490157335 
      7.651249231305 
      7.660198102644 
      7.644490300285 
      7.651249458926 
      7.660198200546 
      7.664112952693 
      7.664055373562 
      7.663997794430 
      7.664112943501 
      7.664055364369 
      7.663997785238 
      7.664112934308 
      7.664055355177 
      7.663997776045 
      7.663992422370 
      7.663913099170 
      7.663810922244 
      7.663992410524 
      7.663913088131 
      7.663810911467 
      7.663992401779 
      7.663913078686 
      7.663810901693 
      7.659628466886 
      7.648874449895 
      7.640268538736 
      7.659628423496 
      7.648874385407 
      7.640268539100 
      7.659628428333 
      7.648874423301 
      7.640268556189 
      7.641221101073 
      7.608735731654 
      7.574747570895 
      7.641221131990 
      7.608735696010 
      7.574747539189 
      7.641221145793 
      7.608735786641 
      7.574747570501 
      7.572641854575 
      7.570230877967 
      7.570172453193 
      7.572641848090 
      7.570230866083 
      7.570172443555 
      7.572641857109 
      7.570230878233 
      7.570172454503 
      7.570498374656 
      7.570498378106 
      7.570498381557 
      7.570498378107 
      7.570498381558 
      7.570498385008 
      7.570498381558 
      7.570498385009 
      7.570498388460 
      7.570500223305 
      7.570501086607 
      7.570501949909 
      7.570501059997 
      7.570501923299 
      7.570502786601 
      7.570501896690 
      7.570502759991 
      7.570503623293 
      7.570188306653 
      7.570544442791 
      7.571450888454 
      7.570193131383 
      7.570549158346 
      7.571454488912 
      7.570198810578 
      7.570553794924 
      7.571467119215 
      7.574727920387 
      7.608720058712 
      7.641426999851 
      7.574596251045 
      7.608763489615 
      7.641197660350 
      7.574671475501 
      7.608694249992 
      7.641711457982 
      7.640050133670 
      7.648780356945 
      7.661197644000 
      7.640107562950 
      7.648902808789 
      7.661007406858 
      7.640200376696 
      7.649345724477 
      7.661539015074 
      7.662382890352 
      7.664057646795 
      7.663772489121 
      7.662329728812 
      7.664036248637 
      7.663729850035 
      7.662499599667 
      7.663979753771 
      7.663816200994 
      7.663876698215 
      7.663959197992 
      7.664041697769 
      7.663883053726 
      7.663965553503 
      7.664048053280 
      7.663889409237 
      7.663971909014 
      7.664054408791 
      7.661720468662 
      7.650888799003 
      7.644037600418 
      7.661790068689 
      7.651110361054 
      7.644115221054 
      7.661836967297 
      7.651552140312 
      7.644372502747 
      7.646062910255 
      7.608577155417 
      7.592989393050 
      7.646021237819 
      7.608572339135 
      7.592979823131 
      7.646390210349 
      7.608517984775 
      7.593019204181 
      7.594080554623 
      7.576000888938 
      7.554678523620 
      7.594075106357 
      7.576002223513 
      7.554676216708 
      7.594157359848 
      7.575994513956 
      7.554673634396 
      7.554067207849 
      7.554085119733 
      7.554103031617 
      7.554066889517 
      7.554084801401 
      7.554102713285 
      7.554066571185 
      7.554084483069 
      7.554102394953 
      7.554107149711 
      7.554145716059 
      7.554184282408 
      7.554106823270 
      7.554145389618 
      7.554183955966 
      7.554106496828 
      7.554145063176 
      7.554183629525 
      7.554808485710 
      7.576177127272 
      7.594497489450 
      7.554808707216 
      7.576177256620 
      7.594497620702 
      7.554808206767 
      7.576176783260 
      7.594495421096 
      7.593413488429 
      7.608627586546 
      7.647440064801 
      7.593413506314 
      7.608627290141 
      7.647439604375 
      7.593411465827 
      7.608626019765 
      7.647436057214 
      7.645293861400 
      7.651802113635 
      7.662622281602 
      7.645292405255 
      7.651800835629 
      7.662621107951 
      7.645287959096 
      7.651796698476 
      7.662620182695 
      7.664896928571 
      7.664900395893 
      7.664903863214 
      7.664897485440 
      7.664900952761 
      7.664904420082 
      7.664898042308 
      7.664901509630 
      7.664904976951 
      7.664903845874 
      7.664905768944 
      7.664907692013 
      7.664904402748 
      7.664906325818 
      7.664908248887 
      7.664904959622 
      7.664906882692 
      7.664908805761 
      7.662632529621 
      7.651818751641 
      7.645316435098 
      7.662631471767 
      7.651817510212 
      7.645315050189 
      7.662630326002 
      7.651813610292 
      7.645311114106 
      7.647461741102 
      7.608647164543 
      7.593451361174 
      7.647460924707 
      7.608646940890 
      7.593451918310 
      7.647457277235 
      7.608647345406 
      7.593451597305 
      7.594536062947 
      7.576230973254 
      7.554867264498 
      7.594536413157 
      7.576231151434 
      7.554867439231 
      7.594537408642 
      7.576230355334 
      7.554871247126 
      7.554245598523 
      7.554240561179 
      7.554235523835 
      7.554245467488 
      7.554240430143 
      7.554235392799 
      7.554245336452 
      7.554240299108 
      7.554235261764 
      7.554235541415 
      7.554231363471 
      7.554227185527 
      7.554235412028 
      7.554231234083 
      7.554227056139 
      7.554235282640 
      7.554231104695 
      7.554226926751 
      7.554849882333 
      7.576233175672 
      7.594535016990 
      7.554851369498 
      7.576233322292 
      7.594535236902 
      7.554851771633 
      7.576238906987 
      7.594535659834 
      7.593450521405 
      7.608650209332 
      7.647462748515 
      7.593451127683 
      7.608650421119 
      7.647462751602 
      7.593450846673 
      7.608651976937 
      7.647463090485 
      7.645317673035 
      7.651820541562 
      7.662633473792 
      7.645317795737 
      7.651820520699 
      7.662633509325 
      7.645317875575 
      7.651820696788 
      7.662633535637 
      7.664909248280 
      7.664909157773 
      7.664909067266 
      7.664909235679 
      7.664909145172 
      7.664909054665 
      7.664909223077 
      7.664909132571 
      7.664909042063 
      7.664909067265 
      7.664908978168 
      7.664908889071 
      7.664909054664 
      7.664908965567 
      7.664908876470 
      7.664909042063 
      7.664908952966 
      7.664908863869 
      7.662633121390 
      7.651820057269 
      7.645317417373 
      7.662633085626 
      7.651820033187 
      7.645317418051 
      7.662633044557 
      7.651819997877 
      7.645317400960 
      7.647462542789 
      7.608649519930 
      7.593453065244 
      7.647462552513 
      7.608649547314 
      7.593453085300 
      7.647462533377 
      7.608649555778 
      7.593453081935 
      7.594537433302 
      7.576234350841 
      7.554862980875 
      7.594537457138 
      7.576234356647 
      7.554862988585 
      7.594537457504 
      7.576234359900 
      7.554862995043 
      7.554239687190 
      7.554238946254 
      7.554238205318 
      7.554239690722 
      7.554238949786 
      7.554238208851 
      7.554239694255 
      7.554238953319 
      7.554238212383 
      7.554238205253 
      7.554237477645 
      7.554236750037 
      7.554238208785 
      7.554237481177 
      7.554236753570 
      7.554238212317 
      7.554237484710 
      7.554236757102 
      7.554859927370 
      7.576228954154 
      7.594530635848 
      7.554859934558 
      7.576228956263 
      7.594530645073 
      7.554859940805 
      7.576228955217 
      7.594530628073 
      7.593446438364 
      7.608644195191 
      7.647451478776 
      7.593446446726 
      7.608644210928 
      7.647451493438 
      7.593446429836 
      7.608644211234 
      7.647451467822 
      7.645303541575 
      7.651810651061 
      7.662640260374 
      7.645303550926 
      7.651810621163 
      7.662640222913 
      7.645303534778 
      7.651810574941 
      7.662640165600 
      7.664925049468 
      7.664922564038 
      7.664920078608 
      7.664925023551 
      7.664922538121 
      7.664920052691 
      7.664924997633 
      7.664922512204 
      7.664920026774 
      7.664920078556 
      7.664917562082 
      7.664915045607 
      7.664920052639 
      7.664917536164 
      7.664915019690 
      7.664920026721 
      7.664917510247 
      7.664914993772 
      7.662630543639 
      7.651794802410 
      7.645281903349 
      7.662630528193 
      7.651794798104 
      7.645281773559 
      7.662630523497 
      7.651794972640 
      7.645281740296 
      7.647431142952 
      7.608625020047 
      7.593407544569 
      7.647431046314 
      7.608624900605 
      7.593408259396 
      7.647431284005 
      7.608626151083 
      7.593409178566 
      7.594491129706 
      7.576170423726 
      7.554800682841 
      7.594491883592 
      7.576170753315 
      7.554803158644 
      7.594493417498 
      7.576179128371 
      7.554804118088 
      7.554177745408 
      7.554139721949 
      7.554101698489 
      7.554177482121 
      7.554139458662 
      7.554101435203 
      7.554177218835 
      7.554139195375 
      7.554101171916 
      7.554098922002 
      7.554081432560 
      7.554063943118 
      7.554098667517 
      7.554081178075 
      7.554063688633 
      7.554098413033 
      7.554080923591 
      7.554063434149 
      7.554673538562 
      7.575991917996 
      7.594151858448 
      7.554674313125 
      7.575992515537 
      7.594152055068 
      7.554675997084 
      7.576000814149 
      7.594153770738 
      7.593043229105 
      7.608509069665 
      7.646430356055 
      7.593043404768 
      7.608508943927 
      7.646430246661 
      7.593044498326 
      7.608510152321 
      7.646430523744 
      7.644490537225 
      7.651249552380 
      7.660198301223 
      7.644490512795 
      7.651249576642 
      7.660198323752 
      7.644490543974 
      7.651249692186 
      7.660198350613 
      7.664112945873 
      7.664055360009 
      7.663997774146 
      7.664112930573 
      7.664055344709 
      7.663997758846 
      7.664112915273 
      7.664055329409 
      7.663997743545 
      7.663992410088 
      7.663913042673 
      7.663810821820 
      7.663992394517 
      7.663913027393 
      7.663810806353 
      7.663992379391 
      7.663913012124 
      7.663810790251 
      7.659628422038 
      7.648874425803 
      7.640268565472 
      7.659628389434 
      7.648874399344 
      7.640268549150 
      7.659628342438 
      7.648874363715 
      7.640268514081 
      7.641221131074 
      7.608735776871 
      7.574747577491 
      7.641221134356 
      7.608735795074 
      7.574747584895 
      7.641221084366 
      7.608735794701 
      7.574747578992 
      7.572641870564 
      7.570230883370 
      7.570172458814 
      7.572641875838 
      7.570230889351 
      7.570172464032 
      7.572641875844 
      7.570230893967 
      7.570172470412 
      7.570498388858 
      7.570498388658 
      7.570498388459 
      7.570498395562 
      7.570498395363 
      7.570498395163 
      7.570498402266 
      7.570498402067 
      7.570498401867 
      7.570501884117 
      7.570501928607 
      7.570501973097 
      7.570501882240 
      7.570501926730 
      7.570501971220 