# vtk DataFile Version 2.0
NDG-FEM NonhydrostaticStandingWave2d Simulation
ASCII
DATASET UNSTRUCTURED_GRID

POINTS 405 double
0.00000000000000000000  0.00000000000000000000  0.00000000000000000000
1.00000000000000000000  0.00000000000000000000  0.00000000000000000000
2.00000000000000000000  0.00000000000000000000  0.00000000000000000000
0.00000000000000000000  1.00000000000000000000  0.00000000000000000000
1.00000000000000000000  1.00000000000000000000  0.00000000000000000000
2.00000000000000000000  1.00000000000000000000  0.00000000000000000000
0.00000000000000000000  2.00000000000000000000  0.00000000000000000000
1.00000000000000000000  2.00000000000000000000  0.00000000000000000000
2.00000000000000000000  2.00000000000000000000  0.00000000000000000000
2.00000000000000000000  0.00000000000000000000  0.00000000000000000000
3.00000000000000000000  0.00000000000000000000  0.00000000000000000000
4.00000000000000000000  0.00000000000000000000  0.00000000000000000000
2.00000000000000000000  1.00000000000000000000  0.00000000000000000000
3.00000000000000000000  1.00000000000000000000  0.00000000000000000000
4.00000000000000000000  1.00000000000000000000  0.00000000000000000000
2.00000000000000000000  2.00000000000000000000  0.00000000000000000000
3.00000000000000000000  2.00000000000000000000  0.00000000000000000000
4.00000000000000000000  2.00000000000000000000  0.00000000000000000000
4.00000000000000000000  0.00000000000000000000  0.00000000000000000000
5.00000000000000000000  0.00000000000000000000  0.00000000000000000000
6.00000000000000000000  0.00000000000000000000  0.00000000000000000000
4.00000000000000000000  1.00000000000000000000  0.00000000000000000000
5.00000000000000000000  1.00000000000000000000  0.00000000000000000000
6.00000000000000000000  1.00000000000000000000  0.00000000000000000000
4.00000000000000000000  2.00000000000000000000  0.00000000000000000000
5.00000000000000000000  2.00000000000000000000  0.00000000000000000000
6.00000000000000000000  2.00000000000000000000  0.00000000000000000000
6.00000000000000000000  0.00000000000000000000  0.00000000000000000000
7.00000000000000000000  0.00000000000000000000  0.00000000000000000000
8.00000000000000000000  0.00000000000000000000  0.00000000000000000000
6.00000000000000000000  1.00000000000000000000  0.00000000000000000000
7.00000000000000000000  1.00000000000000000000  0.00000000000000000000
8.00000000000000000000  1.00000000000000000000  0.00000000000000000000
6.00000000000000000000  2.00000000000000000000  0.00000000000000000000
7.00000000000000000000  2.00000000000000000000  0.00000000000000000000
8.00000000000000000000  2.00000000000000000000  0.00000000000000000000
8.00000000000000000000  0.00000000000000000000  0.00000000000000000000
9.00000000000000000000  0.00000000000000000000  0.00000000000000000000
10.00000000000000000000  0.00000000000000000000  0.00000000000000000000
8.00000000000000000000  1.00000000000000000000  0.00000000000000000000
9.00000000000000000000  1.00000000000000000000  0.00000000000000000000
10.00000000000000000000  1.00000000000000000000  0.00000000000000000000
8.00000000000000000000  2.00000000000000000000  0.00000000000000000000
9.00000000000000000000  2.00000000000000000000  0.00000000000000000000
10.00000000000000000000  2.00000000000000000000  0.00000000000000000000
10.00000000000000000000  0.00000000000000000000  0.00000000000000000000
11.00000000000000000000  0.00000000000000000000  0.00000000000000000000
12.00000000000000000000  0.00000000000000000000  0.00000000000000000000
10.00000000000000000000  1.00000000000000000000  0.00000000000000000000
11.00000000000000000000  1.00000000000000000000  0.00000000000000000000
12.00000000000000000000  1.00000000000000000000  0.00000000000000000000
10.00000000000000000000  2.00000000000000000000  0.00000000000000000000
11.00000000000000000000  2.00000000000000000000  0.00000000000000000000
12.00000000000000000000  2.00000000000000000000  0.00000000000000000000
12.00000000000000000000  0.00000000000000000000  0.00000000000000000000
13.00000000000000000000  0.00000000000000000000  0.00000000000000000000
14.00000000000000000000  0.00000000000000000000  0.00000000000000000000
12.00000000000000000000  1.00000000000000000000  0.00000000000000000000
13.00000000000000000000  1.00000000000000000000  0.00000000000000000000
14.00000000000000000000  1.00000000000000000000  0.00000000000000000000
12.00000000000000000000  2.00000000000000000000  0.00000000000000000000
13.00000000000000000000  2.00000000000000000000  0.00000000000000000000
14.00000000000000000000  2.00000000000000000000  0.00000000000000000000
14.00000000000000000000  0.00000000000000000000  0.00000000000000000000
15.00000000000000000000  0.00000000000000000000  0.00000000000000000000
16.00000000000000000000  0.00000000000000000000  0.00000000000000000000
14.00000000000000000000  1.00000000000000000000  0.00000000000000000000
15.00000000000000000000  1.00000000000000000000  0.00000000000000000000
16.00000000000000000000  1.00000000000000000000  0.00000000000000000000
14.00000000000000000000  2.00000000000000000000  0.00000000000000000000
15.00000000000000000000  2.00000000000000000000  0.00000000000000000000
16.00000000000000000000  2.00000000000000000000  0.00000000000000000000
16.00000000000000000000  0.00000000000000000000  0.00000000000000000000
17.00000000000000000000  0.00000000000000000000  0.00000000000000000000
18.00000000000000000000  0.00000000000000000000  0.00000000000000000000
16.00000000000000000000  1.00000000000000000000  0.00000000000000000000
17.00000000000000000000  1.00000000000000000000  0.00000000000000000000
18.00000000000000000000  1.00000000000000000000  0.00000000000000000000
16.00000000000000000000  2.00000000000000000000  0.00000000000000000000
17.00000000000000000000  2.00000000000000000000  0.00000000000000000000
18.00000000000000000000  2.00000000000000000000  0.00000000000000000000
18.00000000000000000000  0.00000000000000000000  0.00000000000000000000
19.00000000000000000000  0.00000000000000000000  0.00000000000000000000
20.00000000000000000000  0.00000000000000000000  0.00000000000000000000
18.00000000000000000000  1.00000000000000000000  0.00000000000000000000
19.00000000000000000000  1.00000000000000000000  0.00000000000000000000
20.00000000000000000000  1.00000000000000000000  0.00000000000000000000
18.00000000000000000000  2.00000000000000000000  0.00000000000000000000
19.00000000000000000000  2.00000000000000000000  0.00000000000000000000
20.00000000000000000000  2.00000000000000000000  0.00000000000000000000
20.00000000000000000000  0.00000000000000000000  0.00000000000000000000
21.00000000000000000000  0.00000000000000000000  0.00000000000000000000
22.00000000000000000000  0.00000000000000000000  0.00000000000000000000
20.00000000000000000000  1.00000000000000000000  0.00000000000000000000
21.00000000000000000000  1.00000000000000000000  0.00000000000000000000
22.00000000000000000000  1.00000000000000000000  0.00000000000000000000
20.00000000000000000000  2.00000000000000000000  0.00000000000000000000
21.00000000000000000000  2.00000000000000000000  0.00000000000000000000
22.00000000000000000000  2.00000000000000000000  0.00000000000000000000
22.00000000000000000000  0.00000000000000000000  0.00000000000000000000
23.00000000000000000000  0.00000000000000000000  0.00000000000000000000
24.00000000000000000000  0.00000000000000000000  0.00000000000000000000
22.00000000000000000000  1.00000000000000000000  0.00000000000000000000
23.00000000000000000000  1.00000000000000000000  0.00000000000000000000
24.00000000000000000000  1.00000000000000000000  0.00000000000000000000
22.00000000000000000000  2.00000000000000000000  0.00000000000000000000
23.00000000000000000000  2.00000000000000000000  0.00000000000000000000
24.00000000000000000000  2.00000000000000000000  0.00000000000000000000
24.00000000000000000000  0.00000000000000000000  0.00000000000000000000
25.00000000000000000000  0.00000000000000000000  0.00000000000000000000
26.00000000000000000000  0.00000000000000000000  0.00000000000000000000
24.00000000000000000000  1.00000000000000000000  0.00000000000000000000
25.00000000000000000000  1.00000000000000000000  0.00000000000000000000
26.00000000000000000000  1.00000000000000000000  0.00000000000000000000
24.00000000000000000000  2.00000000000000000000  0.00000000000000000000
25.00000000000000000000  2.00000000000000000000  0.00000000000000000000
26.00000000000000000000  2.00000000000000000000  0.00000000000000000000
26.00000000000000000000  0.00000000000000000000  0.00000000000000000000
27.00000000000000000000  0.00000000000000000000  0.00000000000000000000
28.00000000000000000000  0.00000000000000000000  0.00000000000000000000
26.00000000000000000000  1.00000000000000000000  0.00000000000000000000
27.00000000000000000000  1.00000000000000000000  0.00000000000000000000
28.00000000000000000000  1.00000000000000000000  0.00000000000000000000
26.00000000000000000000  2.00000000000000000000  0.00000000000000000000
27.00000000000000000000  2.00000000000000000000  0.00000000000000000000
28.00000000000000000000  2.00000000000000000000  0.00000000000000000000
28.00000000000000000000  0.00000000000000000000  0.00000000000000000000
29.00000000000000000000  0.00000000000000000000  0.00000000000000000000
30.00000000000000000000  0.00000000000000000000  0.00000000000000000000
28.00000000000000000000  1.00000000000000000000  0.00000000000000000000
29.00000000000000000000  1.00000000000000000000  0.00000000000000000000
30.00000000000000000000  1.00000000000000000000  0.00000000000000000000
28.00000000000000000000  2.00000000000000000000  0.00000000000000000000
29.00000000000000000000  2.00000000000000000000  0.00000000000000000000
30.00000000000000000000  2.00000000000000000000  0.00000000000000000000
0.00000000000000000000  2.00000000000000000000  0.00000000000000000000
1.00000000000000000000  2.00000000000000000000  0.00000000000000000000
[...]
POINT_DATA 405
SCALARS  H  double
LOOKUP_TABLE default
      7.661079916081 
      7.658895749690 
      7.652292166091 
      7.661073311763 
      7.658921771810 
      7.652299925578 
      7.661111640029 
      7.658911509200 
      7.652315224123 
      7.652360880504 
      7.642152333226 
      7.628574847583 
      7.652345705597 
      7.642148888298 
      7.628573972063 
      7.652351820103 
      7.642145136248 
      7.628577157869 
      7.628847020945 
      7.613425311364 
      7.597428322637 
      7.628842933873 
      7.613428581427 
      7.597423548575 
      7.628849315538 
      7.613429111720 
      7.597417764550 
      7.597773987715 
      7.582657559969 
      7.570512592269 
      7.597766276223 
      7.582657469143 
      7.570515655784 
      7.597757635275 
      7.582656609474 
      7.570523052224 
      7.570762777825 
      7.562479010417 
      7.559913305185 
      7.570766065872 
      7.562478993693 
      7.559910711669 
      7.570776093054 
      7.562477399934 
      7.559905348464 
      7.559911115745 
      7.562550560628 
      7.570896309887 
      7.559907637624 
      7.562551452800 
      7.570897738600 
      7.559901642686 
      7.562553866372 
      7.570900105560 
      7.570649598675 
      7.582807817473 
      7.597907794215 
      7.570650643902 
      7.582806907377 
      7.597908124826 
      7.570652388011 
      7.582805097228 
      7.597908223793 
      7.597564424783 
      7.613543424809 
      7.628901369644 
      7.597565075345 
      7.613543516400 
      7.628901338954 
      7.597566114807 
      7.613543975294 
      7.628901081848 
      7.628635012491 
      7.642157854689 
      7.652345429712 
      7.628635041338 
      7.642157918718 
      7.652344782404 
      7.628634780816 
      7.642158081171 
      7.652342390274 
      7.652212474867 
      7.658941731825 
      7.660971087102 
      7.652211985137 
      7.658942006578 
      7.660973602367 
      7.652209879032 
      7.658943671343 
      7.660979008505 
      7.660970915531 
      7.659016887754 
      7.652334369113 
      7.660973226918 
      7.659014485520 
      7.652328286924 
      7.660977010235 
      7.659009240397 
      7.652319489893 
      7.652464472151 
      7.642280348506 
      7.628747739461 
      7.652460254585 
      7.642287074133 
      7.628750283111 
      7.652454458783 
      7.642295449899 
      7.628757689438 
      7.629018477671 
      7.613644868048 
      7.597652449436 
      7.629018132739 
      7.613639290590 
      7.597646333109 
      7.629023212927 
      7.613630433220 
      7.597631416132 
      7.597994171384 
      7.582849285061 
      7.570659840693 
      7.597985704678 
      7.582848228144 
      7.570660073416 
      7.597972202345 
      7.582838358715 
      7.570654889267 
      7.570861278933 
      7.562571870968 
      7.559833290952 
      7.570842416232 
      7.562590209096 
      7.559794835792 
      7.570858171598 
      7.562588357583 
      7.559838383537 
      7.661137329795 
      7.658901687445 
      7.652321162236 
      7.661010982384 
      7.658925582166 
      7.652286932808 
      7.661071570528 
      7.658936597177 
      7.652293717269 
      7.652357374443 
      7.642145036422 
      7.628577705683 
      7.652364458848 
      7.642150865209 
      7.628575898993 
      7.652350570425 
      7.642150076620 
      7.628570597935 
      7.628849532199 
      7.613429280604 
      7.597419008849 
      7.628847380982 
      7.613427753790 
      7.597415230158 
      7.628837271438 
      7.613429025420 
      7.597420751473 
      7.597758924076 
      7.582655661124 
      7.570522706060 
      7.597753285913 
      7.582654939767 
      7.570524796713 
      7.597759488078 
      7.582651624542 
      7.570518102549 
      7.570775719366 
      7.562477918986 
      7.559905756896 
      7.570778513007 
      7.562475700149 
      7.559904182106 
      7.570770557740 
      7.562475022267 
      7.559907680639 
      7.559902015666 
      7.562553504635 
      7.570900058227 
      7.559900179381 
      7.562556126381 
      7.570901148986 
      7.559903657101 
      7.562557805263 
      7.570900516950 
      7.570652500650 
      7.582805253138 
      7.597908123422 
      7.570652987021 
      7.582803607818 
      7.597908141333 
      7.570651841928 
      7.582802660651 
      7.597908250000 
      7.597565974159 
      7.613543961340 
      7.628901155900 
      7.597566998581 
      7.613544530159 
      7.628901586029 
      7.597567908183 
      7.613544866756 
      7.628902942230 
      7.628634837446 
      7.642158041992 
      7.652342395045 
      7.628634753201 
      7.642157426059 
      7.652341060802 
      7.628635328521 
      7.642156103767 
      7.652339921238 
      7.652209913927 
      7.658943793504 
      7.660978673823 
      7.652208987518 
      7.658945749010 
      7.660982054496 
      7.652208859658 
      7.658948300109 
      7.660981568446 
      7.660976583285 
      7.659009250664 
      7.652321287648 
      7.660978843659 
      7.659006317501 
      7.652317138304 
      7.660978164052 
      7.659005944931 
      7.652315122274 
      7.652455818625 
      7.642294672649 
      7.628756879263 
      7.652452698411 
      7.642290496274 
      7.628760455673 
      7.652448668009 
      7.642282247960 
      7.628759088096 
      7.629022870165 
      7.613630071047 
      7.597631717816 
      7.629028866974 
      7.613641107791 
      7.597619559120 
      7.629027901951 
      7.613652639010 
      7.597629164121 
      7.597973291926 
      7.582840158026 
      7.570657456352 
      7.597962102313 
      7.582827460378 
      7.570658580649 
      7.597968703022 
      7.582830540812 
      7.570667836725 
      7.570831144334 
      7.562603531428 
      7.559758946505 
      7.570847566877 
      7.562596654505 
      7.559846016904 
      7.570857311455 
      7.562595396817 
      7.559874567658 
      7.661087271576 
      7.658933614079 
      7.652309065990 
      7.660992115664 
      7.658938965390 
      7.652285835197 
      7.661048454414 
      7.658938717965 
      7.652250119753 
      7.652350378602 
      7.642149427381 
      7.628570799640 
      7.652351584098 
      7.642144976862 
      7.628570625812 
      7.652329982458 
      7.642155391144 
      7.628552301823 
      7.628836622849 
      7.613427945571 
      7.597421754726 
      7.628832139721 
      7.613431250145 
      7.597430430729 
      7.628820469311 
      7.613436277746 
      7.597429075404 
      7.597759968223 
      7.582652450718 
      7.570518922456 
      7.597772186001 
      7.582648154427 
      7.570507382378 
      7.597773238091 
      7.582647256380 
      7.570501093722 
      7.570771204215 
      7.562474357381 
      7.559907568423 
      7.570758243214 
      7.562474889919 
      7.559912551458 
      7.570750934131 
      7.562475793829 
      7.559914092453 
      7.559903615458 
      7.562557880580 
      7.570900652737 
      7.559908702209 
      7.562558975385 
      7.570899051728 
      7.559909786370 
      7.562559530190 
      7.570898519088 
      7.570652035106 
      7.582802593199 
      7.597908177232 
      7.570649930143 
      7.582802244418 
      7.597908520107 
      7.570648931857 
      7.582802009272 
      7.597908935379 
      7.597567895154 
      7.613544950147 
      7.628902745242 
      7.597568618509 
      7.613544891670 
      7.628904825010 
      7.597569051843 
      7.613544705900 
      7.628905988855 
      7.628635126742 
      7.642156181011 
      7.652340210582 
      7.628636556543 
      7.642154537149 
      7.652338058995 
      7.628637483868 
      7.642153711149 
      7.652337052972 
      7.652208970007 
      7.658948026357 
      7.660981737386 
      7.652208509074 
      7.658952077690 
      7.660978980795 
      7.652208346792 
      7.658953946641 
      7.660977269644 
      7.660978459472 
      7.659006127374 
      7.652314371444 
      7.660975166837 
      7.659004175729 
      7.652321256907 
      7.660973454687 
      7.659003122351 
      7.652324608836 
      7.652448091895 
      7.642282636027 
      7.628760698103 
      7.652451975225 
      7.642274826240 
      7.628752711877 
      7.652454731211 
      7.642272257593 
      7.628744241566 
      7.629028760453 
      7.613652627142 
      7.597629434423 
      7.629025192958 
      7.613657695736 
      7.597642399289 
      7.629019220462 
      7.613662508102 
      7.597639889601 
      7.597969301858 
      7.582828830718 
      7.570664066078 
      7.597984064951 
      7.582840804563 
      7.570664238709 
      7.597983136094 
      7.582846752161 
      7.570658833920 
      7.570850756462 
      7.562595538708 
      7.559855765832 
      7.570850113693 
      7.562600571009 
      7.559809370935 
      7.570855855050 
      7.562607879819 
      7.559818110236 
SCALARS  HU  double
LOOKUP_TABLE default
     -0.000708087418 
      0.226171183102 
      0.431123494925 
     -0.001275997627 
      0.226361540146 
      0.431097328535 
     -0.001201841315 
      0.226415468702 
      0.430985872008 
      0.430094910408 
      0.594598533684 
      0.704596932835 
      0.429979383700 
      0.594544013760 
      0.704605154582 
      0.430035603298 
      0.594557160227 
      0.704622954462 
      0.704046937919 
      0.743427693365 
      0.713267110660 
      0.704032562260 
      0.743448911051 
      0.713240208064 
      0.704086017196 
      0.743452703746 
      0.713197548984 
      0.714152352940 
      0.608741653028 
      0.444768540861 
      0.714091465724 
      0.608742359137 
      0.444793114305 
      0.714022864938 
      0.608733844155 
      0.444841568882 
      0.446492092978 
      0.233771656806 
     -0.001705786457 
      0.446517775432 
      0.233768391302 
     -0.001721738792 
      0.446593138108 
      0.233753621122 
     -0.001760165763 
      0.000244725037 
     -0.235136595541 
     -0.447659758597 
      0.000218303708 
     -0.235128238154 
     -0.447649889661 
      0.000174201229 
     -0.235106497833 
     -0.447633240622 
     -0.445890883554 
     -0.609739665938 
     -0.715250867385 
     -0.445885283242 
     -0.609746482421 
     -0.715249883434 
     -0.445873852906 
     -0.609761928123 
     -0.715246620980 
     -0.714442848678 
     -0.744518404577 
     -0.704525622252 
     -0.714438314709 
     -0.744516297563 
     -0.704529210201 
     -0.714427335412 
     -0.744511639469 
     -0.704538216180 
     -0.705109630773 
     -0.594592251329 
     -0.429939897863 
     -0.705114209573 
     -0.594592304129 
     -0.429932037389 
     -0.705125506091 
     -0.594591167275 
     -0.429912071740 
     -0.431761017049 
     -0.225731472919 
      0.000476089848 
     -0.431755286335 
     -0.225735713226 
      0.000459865815 
     -0.431740424745 
     -0.225749786636 
      0.000411627518 
     -0.001813031816 
      0.224408525731 
      0.430576042394 
     -0.001826215686 
      0.224423225267 
      0.430627384943 
     -0.001856142855 
      0.224460716909 
      0.430701224366 
      0.428799214856 
      0.593733218886 
      0.704339750461 
      0.428823364776 
      0.593693289620 
      0.704308153064 
      0.428864824937 
      0.593643591365 
      0.704236773070 
      0.703733558630 
      0.743646788474 
      0.713653715696 
      0.703723906828 
      0.743677333788 
      0.713678634732 
      0.703689056727 
      0.743702496361 
      0.713775450515 
      0.714482819403 
      0.609384288444 
      0.445794467212 
      0.714515563595 
      0.609421120717 
      0.445803227580 
      0.714610933664 
      0.609469234777 
      0.445835100308 
      0.446929960733 
      0.235410548294 
     -0.000587318731 
      0.446866302612 
      0.235482091084 
     -0.000698928475 
      0.447063689347 
      0.235313353668 
     -0.000632165228 
     -0.001435477043 
      0.226366220678 
      0.431052018493 
     -0.000914130006 
      0.226233925999 
      0.431329242806 
     -0.000828860541 
      0.226256146973 
      0.431159691206 
      0.430058211266 
      0.594519444796 
      0.704634955720 
      0.430095829960 
      0.594540840787 
      0.704604446675 
      0.430004803982 
      0.594524179909 
      0.704574200568 
      0.704083089370 
      0.743456299408 
      0.713203147118 
      0.704053260422 
      0.743448525412 
      0.713186219233 
      0.703977363522 
      0.743455378587 
      0.713231875660 
      0.714028711007 
      0.608729158035 
      0.444839709845 
      0.713994489324 
      0.608720678146 
      0.444853934822 
      0.714045993004 
      0.608695016439 
      0.444808471667 
      0.446591006218 
      0.233757690692 
     -0.001757845727 
      0.446611104306 
      0.233741678551 
     -0.001769779111 
      0.446553361651 
      0.233739122111 
     -0.001746093339 
      0.000176125255 
     -0.235109313591 
     -0.447633379251 
      0.000162557030 
     -0.235086424949 
     -0.447624012376 
      0.000186589277 
     -0.235071304692 
     -0.447625806755 
     -0.445872628008 
     -0.609761013173 
     -0.715247335755 
     -0.445871492777 
     -0.609777470758 
     -0.715236252950 
     -0.445881833760 
     -0.609790356281 
     -0.715219704266 
     -0.714428175274 
     -0.744511594555 
     -0.704538577926 
     -0.714409593625 
     -0.744510005692 
     -0.704555920615 
     -0.714386748045 
     -0.744511522206 
     -0.704580240979 
     -0.705125669920 
     -0.594590942618 
     -0.429911820095 
     -0.705139038185 
     -0.594581994396 
     -0.429898610335 
     -0.705154319058 
     -0.594566033104 
     -0.429888486694 
     -0.431740430239 
     -0.225750715907 
      0.000415796152 
     -0.431733229036 
     -0.225769424386 
      0.000388761386 
     -0.431734351278 
     -0.225793801103 
      0.000395198197 
     -0.001851005266 
      0.224460387889 
      0.430688230897 
     -0.001867788035 
      0.224482542535 
      0.430719780216 
     -0.001862276953 
      0.224485991886 
      0.430722334203 
      0.428856574759 
      0.593647241529 
      0.704245777426 
      0.428881552000 
      0.593676464406 
      0.704231036025 
      0.428902049581 
      0.593737086257 
      0.704244673956 
      0.703689778126 
      0.743707013379 
      0.713767903909 
      0.703645028673 
      0.743635080688 
      0.713853438277 
      0.703654516658 
      0.743568854431 
      0.713801885790 
      0.714589845461 
      0.609457581962 
      0.445802806091 
      0.714665454412 
      0.609550077469 
      0.445831683759 
      0.714646540246 
      0.609524153389 
      0.445716224512 
      0.446748975828 
      0.235447626426 
     -0.000974215332 
      0.447059590082 
      0.235357869475 
     -0.001165915248 
      0.447081536944 
      0.235266263328 
     -0.001309975559 
     -0.001140241319 
      0.226349516628 
      0.431137038065 
     -0.000979850326 
      0.226230674715 
      0.431331040235 
     -0.000732226154 
      0.226400906411 
      0.430975731845 
      0.430015705651 
      0.594527501242 
      0.704583534332 
      0.429932843548 
      0.594498700863 
      0.704545941785 
      0.429934186095 
      0.594561888296 
      0.704451393821 
      0.703975996926 
      0.743451356832 
      0.713229990792 
      0.703911087770 
      0.743466624906 
      0.713296691027 
      0.703856001578 
      0.743498936330 
      0.713282495872 
      0.714040982319 
      0.608701195191 
      0.444814737055 
      0.714140677001 
      0.608670943353 
      0.444730521650 
      0.714148261444 
      0.608665229853 
      0.444690825152 
      0.446558124250 
      0.233733941204 
     -0.001746375012 
      0.446461586361 
      0.233743910009 
     -0.001713188455 
      0.446412153851 
      0.233750636959 
     -0.001697050523 
      0.000187176942 
     -0.235070468268 
     -0.447625072305 
      0.000222551784 
     -0.235061651080 
     -0.447633848596 
      0.000232372551 
     -0.235058141145 
     -0.447635346709 
     -0.445880478090 
     -0.609790704189 
     -0.715220048202 
     -0.445896820020 
     -0.609798951198 
     -0.715205376469 
     -0.445905090793 
     -0.609802732257 
     -0.715198941976 
     -0.714387040407 
     -0.744511598925 
     -0.704578961664 
     -0.714366928554 
     -0.744512790672 
     -0.704605637499 
     -0.714358501385 
     -0.744513280373 
     -0.704617507987 
     -0.705153342496 
     -0.594566599355 
     -0.429891183495 
     -0.705170922250 
     -0.594549142489 
     -0.429872885961 
     -0.705178909332 
     -0.594541435548 
     -0.429864308688 
     -0.431735482509 
     -0.225791465200 
      0.000394599982 
     -0.431736372152 
     -0.225823944067 
      0.000414106264 
     -0.431738680458 
     -0.225838332962 
      0.000426326718 
     -0.001863841555 
      0.224484258090 
      0.430728913474 
     -0.001839516148 
      0.224497480900 
      0.430674099138 
     -0.001829083545 
      0.224504595130 
      0.430648959583 
      0.428906730776 
      0.593734930870 
      0.704231773483 
      0.428884083930 
      0.593790753236 
      0.704300076394 
      0.428864051219 
      0.593810770600 
      0.704356325374 
      0.703645692221 
      0.743575268068 
      0.713796830797 
      0.703680061349 
      0.743535609378 
      0.713749045290 
      0.703694661023 
      0.743521538665 
      0.713744555159 
      0.714640772281 
      0.609553092786 
      0.445780210747 
      0.714568926832 
      0.609510155823 
      0.445806558738 
      0.714547059652 
      0.609474513153 
      0.445843311245 
      0.447078053369 
      0.235310569729 
     -0.001242508272 
      0.446929665636 
      0.235347551306 
     -0.000845708086 
      0.446937099831 
      0.235315832494 
     -0.000631453084 
SCALARS  HV  double
LOOKUP_TABLE default
      0.000107711041 
     -0.000085150826 
      0.000031716011 
     -0.000276794164 
      0.000048268017 
     -0.000090038313 
      0.000050985194 
      0.000030857740 
     -0.000063233830 
      0.000033423903 
     -0.000000570579 
      0.000011659799 
      0.000037844024 
      0.000001725453 
     -0.000000398218 
      0.000015097556 
      0.000047275428 
      0.000012661545 
     -0.000004029199 
     -0.000003546758 
      0.000010722186 
     -0.000008232882 
      0.000024169903 
      0.000011330591 
      0.000020364392 
      0.000034710460 
      0.000016495064 
      0.000012649884 
     -0.000002480679 
     -0.000000835451 
      0.000009068119 
     -0.000021108093 
      0.000000462533 
      0.000023493474 
     -0.000019736158 
     -0.000010143334 
     -0.000003418352 
     -0.000001020784 
      0.000005024567 
      0.000005222123 
      0.000016263436 
     -0.000007227586 
     -0.000002962948 
      0.000015827196 
     -0.000010853294 
      0.000004961901 
     -0.000001181689 
     -0.000000083240 
     -0.000013779911 
     -0.000010929691 
      0.000008131974 
     -0.000018009997 
     -0.000013031160 
      0.000009575110 
      0.000000760916 
      0.000000472166 
     -0.000000419315 
      0.000011972919 
      0.000001889616 
     -0.000004731105 
      0.000015593684 
      0.000002822428 
     -0.000007517619 
     -0.000000292712 
      0.000000036919 
     -0.000000066583 
     -0.000004922844 
      0.000001556437 
      0.000001226825 
     -0.000007806237 
      0.000003173426 
      0.000000556797 
     -0.000000166314 
     -0.000000087493 
      0.000000881961 
      0.000000179413 
     -0.000003140338 
      0.000001554852 
     -0.000001415180 
     -0.000005048023 
      0.000006986387 
      0.000000031276 
      0.000000085674 
      0.000001653322 
      0.000003128897 
      0.000004407411 
     -0.000015910127 
      0.000008218021 
      0.000004859492 
     -0.000031635529 
      0.000000284285 
     -0.000000070832 