# vtk DataFile Version 2.0
NDG-FEM NonhydrostaticStandingWave2d Simulation
ASCII
DATASET UNSTRUCTURED_GRID

POINTS 405 double
0.00000000000000000000  0.00000000000000000000  0.00000000000000000000
1.00000000000000000000  0.00000000000000000000  0.00000000000000000000
2.00000000000000000000  0.00000000000000000000  0.00000000000000000000
0.00000000000000000000  1.00000000000000000000  0.00000000000000000000
1.00000000000000000000  1.00000000000000000000  0.00000000000000000000
2.00000000000000000000  1.00000000000000000000  0.00000000000000000000
0.00000000000000000000  2.00000000000000000000  0.00000000000000000000
1.00000000000000000000  2.00000000000000000000  0.00000000000000000000
2.00000000000000000000  2.00000000000000000000  0.00000000000000000000
2.00000000000000000000  0.00000000000000000000  0.00000000000000000000
3.00000000000000000000  0.00000000000000000000  0.00000000000000000000
4.00000000000000000000  0.00000000000000000000  0.00000000000000000000
2.00000000000000000000  1.00000000000000000000  0.00000000000000000000
3.00000000000000000000  1.00000000000000000000  0.00000000000000000000
4.00000000000000000000  1.00000000000000000000  0.00000000000000000000
2.00000000000000000000  2.00000000000000000000  0.00000000000000000000
3.00000000000000000000  2.00000000000000000000  0.00000000000000000000
4.00000000000000000000  2.00000000000000000000  0.00000000000000000000
4.00000000000000000000  0.00000000000000000000  0.00000000000000000000
5.00000000000000000000  0.00000000000000000000  0.00000000000000000000
6.00000000000000000000  0.00000000000000000000  0.00000000000000000000
4.00000000000000000000  1.00000000000000000000  0.00000000000000000000
5.00000000000000000000  1.00000000000000000000  0.00000000000000000000
6.00000000000000000000  1.00000000000000000000  0.00000000000000000000
4.00000000000000000000  2.00000000000000000000  0.00000000000000000000
5.00000000000000000000  2.00000000000000000000  0.00000000000000000000
6.00000000000000000000  2.00000000000000000000  0.00000000000000000000
6.00000000000000000000  0.00000000000000000000  0.00000000000000000000
7.00000000000000000000  0.00000000000000000000  0.00000000000000000000
8.00000000000000000000  0.00000000000000000000  0.00000000000000000000
6.00000000000000000000  1.00000000000000000000  0.00000000000000000000
7.00000000000000000000  1.00000000000000000000  0.00000000000000000000
8.00000000000000000000  1.00000000000000000000  0.00000000000000000000
6.00000000000000000000  2.00000000000000000000  0.00000000000000000000
7.00000000000000000000  2.00000000000000000000  0.00000000000000000000
8.00000000000000000000  2.00000000000000000000  0.00000000000000000000
8.00000000000000000000  0.00000000000000000000  0.00000000000000000000
9.00000000000000000000  0.00000000000000000000  0.00000000000000000000
10.00000000000000000000  0.00000000000000000000  0.00000000000000000000
8.00000000000000000000  1.00000000000000000000  0.00000000000000000000
9.00000000000000000000  1.00000000000000000000  0.00000000000000000000
10.00000000000000000000  1.00000000000000000000  0.00000000000000000000
8.00000000000000000000  2.00000000000000000000  0.00000000000000000000
9.00000000000000000000  2.00000000000000000000  0.00000000000000000000
10.00000000000000000000  2.00000000000000000000  0.00000000000000000000
10.00000000000000000000  0.00000000000000000000  0.00000000000000000000
11.00000000000000000000  0.00000000000000000000  0.00000000000000000000
12.00000000000000000000  0.00000000000000000000  0.00000000000000000000
10.00000000000000000000  1.00000000000000000000  0.00000000000000000000
11.00000000000000000000  1.00000000000000000000  0.00000000000000000000
12.00000000000000000000  1.00000000000000000000  0.00000000000000000000
10.00000000000000000000  2.00000000000000000000  0.00000000000000000000
11.00000000000000000000  2.00000000000000000000  0.00000000000000000000
12.00000000000000000000  2.00000000000000000000  0.00000000000000000000
12.00000000000000000000  0.00000000000000000000  0.00000000000000000000
13.00000000000000000000  0.00000000000000000000  0.00000000000000000000
14.00000000000000000000  0.00000000000000000000  0.00000000000000000000
12.00000000000000000000  1.00000000000000000000  0.00000000000000000000
13.00000000000000000000  1.00000000000000000000  0.00000000000000000000
14.00000000000000000000  1.00000000000000000000  0.00000000000000000000
12.00000000000000000000  2.00000000000000000000  0.00000000000000000000
13.00000000000000000000  2.00000000000000000000  0.00000000000000000000
14.00000000000000000000  2.00000000000000000000  0.00000000000000000000
14.00000000000000000000  0.00000000000000000000  0.00000000000000000000
15.00000000000000000000  0.00000000000000000000  0.00000000000000000000
16.00000000000000000000  0.00000000000000000000  0.00000000000000000000
14.00000000000000000000  1.00000000000000000000  0.00000000000000000000
15.00000000000000000000  1.00000000000000000000  0.00000000000000000000
16.00000000000000000000  1.00000000000000000000  0.00000000000000000000
14.00000000000000000000  2.00000000000000000000  0.00000000000000000000
15.00000000000000000000  2.00000000000000000000  0.00000000000000000000
16.00000000000000000000  2.00000000000000000000  0.00000000000000000000
16.00000000000000000000  0.00000000000000000000  0.00000000000000000000
17.00000000000000000000  0.00000000000000000000  0.00000000000000000000
18.00000000000000000000  0.00000000000000000000  0.00000000000000000000
16.00000000000000000000  1.00000000000000000000  0.00000000000000000000
17.00000000000000000000  1.00000000000000000000  0.00000000000000000000
18.00000000000000000000  1.00000000000000000000  0.00000000000000000000
16.00000000000000000000  2.00000000000000000000  0.00000000000000000000
17.00000000000000000000  2.00000000000000000000  0.00000000000000000000
18.00000000000000000000  2.00000000000000000000  0.00000000000000000000
18.00000000000000000000  0.00000000000000000000  0.00000000000000000000
19.00000000000000000000  0.00000000000000000000  0.00000000000000000000
20.00000000000000000000  0.00000000000000000000  0.00000000000000000000
18.00000000000000000000  1.00000000000000000000  0.00000000000000000000
19.00000000000000000000  1.00000000000000000000  0.00000000000000000000
20.00000000000000000000  1.00000000000000000000  0.00000000000000000000
18.00000000000000000000  2.00000000000000000000  0.00000000000000000000
19.00000000000000000000  2.00000000000000000000  0.00000000000000000000
20.00000000000000000000  2.00000000000000000000  0.00000000000000000000
20.00000000000000000000  0.00000000000000000000  0.00000000000000000000
21.00000000000000000000  0.00000000000000000000  0.00000000000000000000
22.00000000000000000000  0.00000000000000000000  0.00000000000000000000
20.00000000000000000000  1.00000000000000000000  0.00000000000000000000
21.00000000000000000000  1.00000000000000000000  0.00000000000000000000
22.00000000000000000000  1.00000000000000000000  0.00000000000000000000
20.00000000000000000000  2.00000000000000000000  0.00000000000000000000
21.00000000000000000000  2.00000000000000000000  0.00000000000000000000
22.00000000000000000000  2.00000000000000000000  0.00000000000000000000
22.00000000000000000000  0.00000000000000000000  0.00000000000000000000
23.00000000000000000000  0.00000000000000000000  0.00000000000000000000
24.00000000000000000000  0.00000000000000000000  0.00000000000000000000
22.00000000000000000000  1.00000000000000000000  0.00000000000000000000
23.00000000000000000000  1.00000000000000000000  0.00000000000000000000
24.00000000000000000000  1.00000000000000000000  0.00000000000000000000
22.00000000000000000000  2.00000000000000000000  0.00000000000000000000
23.00000000000000000000  2.00000000000000000000  0.00000000000000000000
24.00000000000000000000  2.00000000000000000000  0.00000000000000000000
24.00000000000000000000  0.00000000000000000000  0.00000000000000000000
25.00000000000000000000  0.00000000000000000000  0.00000000000000000000
26.00000000000000000000  0.00000000000000000000  0.00000000000000000000
24.00000000000000000000  1.00000000000000000000  0.00000000000000000000
25.00000000000000000000  1.00000000000000000000  0.00000000000000000000
26.00000000000000000000  1.00000000000000000000  0.00000000000000000000
24.00000000000000000000  2.00000000000000000000  0.00000000000000000000
25.00000000000000000000  2.00000000000000000000  0.00000000000000000000
26.00000000000000000000  2.00000000000000000000  0.00000000000000000000
26.00000000000000000000  0.00000000000000000000  0.00000000000000000000
27.00000000000000000000  0.00000000000000000000  0.00000000000000000000
28.00000000000000000000  0.00000000000000000000  0.00000000000000000000
26.00000000000000000000  1.00000000000000000000  0.00000000000000000000
27.00000000000000000000  1.00000000000000000000  0.00000000000000000000
28.00000000000000000000  1.00000000000000000000  0.00000000000000000000
26.00000000000000000000  2.00000000000000000000  0.00000000000000000000
27.00000000000000000000  2.00000000000000000000  0.00000000000000000000
28.00000000000000000000  2.00000000000000000000  0.00000000000000000000
28.00000000000000000000  0.00000000000000000000  0.00000000000000000000
29.00000000000000000000  0.00000000000000000000  0.00000000000000000000
30.00000000000000000000  0.00000000000000000000  0.00000000000000000000
28.00000000000000000000  1.00000000000000000000  0.00000000000000000000
29.00000000000000000000  1.00000000000000000000  0.00000000000000000000
30.00000000000000000000  1.00000000000000000000  0.00000000000000000000
28.00000000000000000000  2.00000000000000000000  0.00000000000000000000
29.00000000000000000000  2.00000000000000000000  0.00000000000000000000
30.00000000000000000000  2.00000000000000000000  0.00000000000000000000
0.00000000000000000000  2.00000000000000000000  0.00000000000000000000
1.00000000000000000000  2.00000000000000000000  0.00000000000000000000
[...]
POINT_DATA 405
SCALARS  H  double
LOOKUP_TABLE default
      7.517521457195 
      7.522224245905 
      7.535733488096 
      7.517522997774 
      7.522223116015 
      7.535734546240 
      7.517519802163 
      7.522223689125 
      7.535733572566 
      7.535446799641 
      7.556564645003 
      7.583106110073 
      7.535446448006 
      7.556564709718 
      7.583106024517 
      7.535446891075 
      7.556564581300 
      7.583106191823 
      7.582645978525 
      7.612069292185 
      7.641462945150 
      7.582645939437 
      7.612069300329 
      7.641462934065 
      7.582646019818 
      7.612069281887 
      7.641462961686 
      7.640993990172 
      7.667479897912 
      7.688509124960 
      7.640993985371 
      7.667479898833 
      7.688509123736 
      7.640993994912 
      7.667479896699 
      7.688509127050 
      7.688213978642 
      7.701678543577 
      7.706348294311 
      7.688213977882 
      7.701678543752 
      7.706348294001 
      7.688213979043 
      7.701678543458 
      7.706348294546 
      7.706347386791 
      7.701677727601 
      7.688215561320 
      7.706347386764 
      7.701677727611 
      7.688215561300 
      7.706347386784 
      7.701677727595 
      7.688215561335 
      7.688509774913 
      7.667479685025 
      7.640994385777 
      7.688509774917 
      7.667479685025 
      7.640994385776 
      7.688509774906 
      7.667479685025 
      7.640994385776 
      7.641463188329 
      7.612069167931 
      7.582647563971 
      7.641463188329 
      7.612069167931 
      7.582647563971 
      7.641463188328 
      7.612069167932 
      7.582647563970 
      7.583106824336 
      7.556563384443 
      7.535456165872 
      7.583106824338 
      7.556563384442 
      7.535456165872 
      7.583106824338 
      7.556563384442 
      7.535456165872 
      7.535735815514 
      7.522210835709 
      7.517517787737 
      7.535735815588 
      7.522210835671 
      7.517517787921 
      7.535735815518 
      7.522210835706 
      7.517517787733 
      7.517518635019 
      7.522211566798 
      7.535734417062 
      7.517518635658 
      7.522211566426 
      7.535734419358 
      7.517518635219 
      7.522211566694 
      7.535734417494 
      7.535455592659 
      7.556563571703 
      7.583106808266 
      7.535455595680 
      7.556563569437 
      7.583106826433 
      7.535455593196 
      7.556563571195 
      7.583106810331 
      7.582647289040 
      7.612069181675 
      7.641464480889 
      7.582647315146 
      7.612069166773 
      7.641464639643 
      7.582647319143 
      7.612069167144 
      7.641464561211 
      7.640994509418 
      7.667478748862 
      7.688518665888 
      7.640994700354 
      7.667478633513 
      7.688519972487 
      7.640994762838 
      7.667478605909 
      7.688519488048 
      7.688214196259 
      7.701664297187 
      7.706344843883 
      7.688217038239 
      7.701664009421 
      7.706350962697 
      7.688218753163 
      7.701662600258 
      7.706354321984 
      7.517523420914 
      7.522222718149 
      7.535735006530 
      7.517512284516 
      7.522224445234 
      7.535730546989 
      7.517519102967 
      7.522223000901 
      7.535734229573 
      7.535446835775 
      7.556564618127 
      7.583106122011 
      7.535447158304 
      7.556564632326 
      7.583105991073 
      7.535446957008 
      7.556564495417 
      7.583106318681 
      7.582646031005 
      7.612069282952 
      7.641462959641 
      7.582646117599 
      7.612069287558 
      7.641462935382 
      7.582646044787 
      7.612069271915 
      7.641462977392 
      7.640993996706 
      7.667479896648 
      7.688509127190 
      7.640994018609 
      7.667479895840 
      7.688509126277 
      7.640993999130 
      7.667479895268 
      7.688509129831 
      7.688213979107 
      7.701678543481 
      7.706348294480 
      7.688213983387 
      7.701678543089 
      7.706348294857 
      7.688213978780 
      7.701678543444 
      7.706348294565 
      7.706347386838 
      7.701677727587 
      7.688215561349 
      7.706347387566 
      7.701677727487 
      7.688215561505 
      7.706347386780 
      7.701677727589 
      7.688215561349 
      7.688509774909 
      7.667479685025 
      7.640994385777 
      7.688509774988 
      7.667479685012 
      7.640994385799 
      7.688509774901 
      7.667479685025 
      7.640994385776 
      7.641463188328 
      7.612069167931 
      7.582647563971 
      7.641463188335 
      7.612069167930 
      7.582647563975 
      7.641463188327 
      7.612069167932 
      7.582647563971 
      7.583106824338 
      7.556563384442 
      7.535456165873 
      7.583106824339 
      7.556563384441 
      7.535456165882 
      7.583106824338 
      7.556563384442 
      7.535456165877 
      7.535735815555 
      7.522210835687 
      7.517517787842 
      7.535735815515 
      7.522210835706 
      7.517517787784 
      7.535735815536 
      7.522210835697 
      7.517517787815 
      7.517518635210 
      7.522211566672 
      7.535734417850 
      7.517518635009 
      7.522211566796 
      7.535734417435 
      7.517518635061 
      7.522211566759 
      7.535734417521 
      7.535455593829 
      7.556563570762 
      7.583106815027 
      7.535455591308 
      7.556563572250 
      7.583106808973 
      7.535455592003 
      7.556563571822 
      7.583106810016 
      7.582647323785 
      7.612069164691 
      7.641464605411 
      7.582647304246 
      7.612069177506 
      7.641464553633 
      7.582647308112 
      7.612069174577 
      7.641464554222 
      7.640994782119 
      7.667478595271 
      7.688519851729 
      7.640994678344 
      7.667478678787 
      7.688519659006 
      7.640994685019 
      7.667478665333 
      7.688519499200 
      7.688216184283 
      7.701664137847 
      7.706348609082 
      7.688217209391 
      7.701663930162 
      7.706352046791 
      7.688216634918 
      7.701664260435 
      7.706349584632 
      7.517518203470 
      7.522223094828 
      7.535734196963 
      7.517532552329 
      7.522220778795 
      7.535736915081 
      7.517526809395 
      7.522221404179 
      7.535737014733 
      7.535446992386 
      7.556564481529 
      7.583106335378 
      7.535447890305 
      7.556564596259 
      7.583106049870 
      7.535447880068 
      7.556564360321 
      7.583106530728 
      7.582646067666 
      7.612069269533 
      7.641462984306 
      7.582646174506 
      7.612069283188 
      7.641462940838 
      7.582646192885 
      7.612069252838 
      7.641463019034 
      7.640994002709 
      7.667479894423 
      7.688509130835 
      7.640994022840 
      7.667479895658 
      7.688509126869 
      7.640994014350 
      7.667479891829 
      7.688509134480 
      7.688213979240 
      7.701678543350 
      7.706348294712 
      7.688213983549 
      7.701678543101 
      7.706348294838 
      7.688213980370 
      7.701678543082 
      7.706348295218 
      7.706347386807 
      7.701677727581 
      7.688215561369 
      7.706347387592 
      7.701677727486 
      7.688215561504 
      7.706347386783 
      7.701677727575 
      7.688215561390 
      7.688509774899 
      7.667479685025 
      7.640994385776 
      7.688509774991 
      7.667479685011 
      7.640994385799 
      7.688509774890 
      7.667479685026 
      7.640994385776 
      7.641463188327 
      7.612069167931 
      7.582647563972 
      7.641463188335 
      7.612069167930 
      7.582647563973 
      7.641463188325 
      7.612069167932 
      7.582647563972 
      7.583106824338 
      7.556563384442 
      7.535456165876 
      7.583106824338 
      7.556563384442 
      7.535456165868 
      7.583106824337 
      7.556563384442 
      7.535456165878 
      7.535735815570 
      7.522210835679 
      7.517517787907 
      7.535735815592 
      7.522210835670 
      7.517517787905 
      7.535735815504 
      7.522210835710 
      7.517517787751 
      7.517518635110 
      7.522211566714 
      7.535734417959 
      7.517518635778 
      7.522211566365 
      7.535734419494 
      7.517518634858 
      7.522211566890 
      7.535734416952 
      7.535455593225 
      7.556563571107 
      7.583106815608 
      7.535455598655 
      7.556563567875 
      7.583106834264 
      7.535455591024 
      7.556563572563 
      7.583106805231 
      7.582647307150 
      7.612069173541 
      7.641464583693 
      7.582647345424 
      7.612069148871 
      7.641464745685 
      7.582647287447 
      7.612069186293 
      7.641464490245 
      7.640994729042 
      7.667478632761 
      7.688519922414 
      7.640994837189 
      7.667478533355 
      7.688520737028 
      7.640994575011 
      7.667478730124 
      7.688519163485 
      7.688219533408 
      7.701662377182 
      7.706358731873 
      7.688220369666 
      7.701661664500 
      7.706361899898 
      7.688217412281 
      7.701663755876 
      7.706352414255 
SCALARS  HU  double
LOOKUP_TABLE default
     -0.000013133545 
     -0.086888932244 
     -0.167507264220 
     -0.000032222550 
     -0.086878908743 
     -0.167524072837 
     -0.000021768011 
     -0.086891895207 
     -0.167504364511 
     -0.167668909063 
     -0.228829185829 
     -0.272485051922 
     -0.167669609792 
     -0.228828918706 
     -0.272485380498 
     -0.167667847240 
     -0.228829673652 
     -0.272484453195 
     -0.272570719868 
     -0.284680403122 
     -0.274436495461 
     -0.272570878677 
     -0.284680362212 
     -0.274436553066 
     -0.272570394473 
     -0.284680481502 
     -0.274436374616 
     -0.274355075992 
     -0.231778919434 
     -0.170627252754 
     -0.274355096761 
     -0.231778914886 
     -0.170627258469 
     -0.274355035632 
     -0.231778929279 
     -0.170627236222 
     -0.170419363837 
     -0.088873773933 
     -0.000128776783 
     -0.170419368707 
     -0.088873772807 
     -0.000128778886 
     -0.170419360281 
     -0.088873774988 
     -0.000128774821 
      0.000128229854 
      0.088873381039 
      0.170419845541 
      0.000128229721 
      0.088873381110 
      0.170419845392 
      0.000128229902 
      0.088873380975 
      0.170419845679 
      0.170632929176 
      0.231777198734 
      0.274354903491 
      0.170632929210 
      0.231777198733 
      0.274354903492 
      0.170632929135 
      0.231777198736 
      0.274354903490 
      0.274438271932 
      0.284680855839 
      0.272557521528 
      0.274438271939 
      0.284680855837 
      0.272557521538 
      0.274438271928 
      0.284680855838 
      0.272557521534 
      0.272479460640 
      0.228840105473 
      0.167587033628 
      0.272479460628 
      0.228840105478 
      0.167587033646 
      0.272479460630 
      0.228840105477 
      0.167587033630 
      0.167385920119 
      0.087057766067 
      0.000124639406 
      0.167385919540 
      0.087057766359 
      0.000124638047 
      0.167385920112 
      0.087057766072 
      0.000124639539 
     -0.000123601554 
     -0.087057633757 
     -0.167386647018 
     -0.000123607004 
     -0.087057630637 
     -0.167386665771 
     -0.000123602857 
     -0.087057633099 
     -0.167386649150 
     -0.167591709220 
     -0.228838540366 
     -0.272482406823 
     -0.167591737565 
     -0.228838521168 
     -0.272482558839 
     -0.167591711851 
     -0.228838538222 
     -0.272482410026 
     -0.272558547502 
     -0.284680406857 
     -0.274450015464 
     -0.272558794096 
     -0.284680241514 
     -0.274451440287 
     -0.272558773065 
     -0.284680287800 
     -0.274450575435 
     -0.274356349336 
     -0.231769330447 
     -0.170708814279 
     -0.274358505774 
     -0.231767852559 
     -0.170722291257 
     -0.274358303728 
     -0.231768148289 
     -0.170715156909 
     -0.170527198818 
     -0.088704759128 
     -0.000035471432 
     -0.170547148112 
     -0.088687236817 
     -0.000035390213 
     -0.170525448380 
     -0.088703447739 
      0.000005766619 
     -0.000032237291 
     -0.086882360405 
     -0.167520324550 
     -0.000003375894 
     -0.086906384016 
     -0.167490000596 
     -0.000052122689 
     -0.086895227871 
     -0.167502074205 
     -0.167667353181 
     -0.228829481024 
     -0.272484851793 
     -0.167663885487 
     -0.228829612337 
     -0.272485639440 
     -0.167667027611 
     -0.228830343013 
     -0.272483467077 
     -0.272570237680 
     -0.284680481725 
     -0.274436376992 
     -0.272569340637 
     -0.284680480070 
     -0.274436528385 
     -0.272570215961 
     -0.284680554504 
     -0.274436262841 
     -0.274355017777 
     -0.231778930062 
     -0.170627235002 
     -0.274354809294 
     -0.231778941499 
     -0.170627234937 
     -0.274355003195 
     -0.231778940286 
     -0.170627215206 
     -0.170419359071 
     -0.088873774925 
     -0.000128775146 
     -0.170419321484 
     -0.088873778514 
     -0.000128771495 
     -0.170419361907 
     -0.088873775184 
     -0.000128774600 
      0.000128230361 
      0.088873380910 
      0.170419845801 
      0.000128236590 
      0.088873380041 
      0.170419847164 
      0.000128229976 
      0.088873380907 
      0.170419845819 
      0.170632929156 
      0.231777198733 
      0.274354903496 
      0.170632929810 
      0.231777198623 
      0.274354903684 
      0.170632929104 
      0.231777198736 
      0.274354903492 
      0.274438271926 
      0.284680855839 
      0.272557521530 
      0.274438271982 
      0.284680855827 
      0.272557521549 
      0.274438271921 
      0.284680855840 
      0.272557521528 
      0.272479460630 
      0.228840105478 
      0.167587033628 
      0.272479460620 
      0.228840105483 
      0.167587033558 
      0.272479460624 
      0.228840105481 
      0.167587033593 
      0.167385919811 
      0.087057766225 
      0.000124638674 
      0.167385920159 
      0.087057766061 
      0.000124639166 
      0.167385919953 
      0.087057766159 
      0.000124638815 
     -0.000123603436 
     -0.087057632591 
     -0.167386653799 
     -0.000123601452 
     -0.087057633787 
     -0.167386649510 
     -0.000123601853 
     -0.087057633466 
     -0.167386650415 
     -0.167591722397 
     -0.228838531672 
     -0.272482466523 
     -0.167591699540 
     -0.228838545336 
     -0.272482409473 
     -0.167591704953 
     -0.228838541928 
     -0.272482418506 
     -0.272558870622 
     -0.284680225008 
     -0.274451160155 
     -0.272558697048 
     -0.284680339378 
     -0.274450694756 
     -0.272558703138 
     -0.284680328561 
     -0.274450628658 
     -0.274359195529 
     -0.231767561764 
     -0.170721121548 
     -0.274358232864 
     -0.231768322556 
     -0.170719287193 
     -0.274358047236 
     -0.231768362704 
     -0.170717095490 
     -0.170563419108 
     -0.088677696451 
     -0.000053479502 
     -0.170532815600 
     -0.088698909229 
     -0.000040424975 
     -0.170544729551 
     -0.088692496297 
     -0.000043269517 
     -0.000050328384 
     -0.086895239555 
     -0.167500296415 
     -0.000012994988 
     -0.086882228525 
     -0.167532573134 
     -0.000043321891 
     -0.086891012124 
     -0.167510424781 
     -0.167667974123 
     -0.228830264046 
     -0.272483744321 
     -0.167656527251 
     -0.228830105023 
     -0.272484774510 
     -0.167661727158 
     -0.228831020097 
     -0.272482770863 
     -0.272570086339 
     -0.284680578333 
     -0.274436226016 
     -0.272568770358 
     -0.284680523948 
     -0.274436454663 
     -0.272569099924 
     -0.284680726690 
     -0.274435971683 
     -0.274354982230 
     -0.231778944358 
     -0.170627208471 
     -0.274354763968 
     -0.231778945422 
     -0.170627227577 
     -0.274354891097 
     -0.231778961180 
     -0.170627179779 
     -0.170419359883 
     -0.088873775729 
     -0.000128773633 
     -0.170419319015 
     -0.088873778572 
     -0.000128771434 
     -0.170419351876 
     -0.088873777790 
     -0.000128769611 
      0.000128230136 
      0.088873380845 
      0.170419845939 
      0.000128236824 
      0.088873380034 
      0.170419847174 
      0.000128230071 
      0.088873380766 
      0.170419846104 
      0.170632929092 
      0.231777198735 
      0.274354903496 
      0.170632929832 
      0.231777198622 
      0.274354903686 
      0.170632929035 
      0.231777198737 
      0.274354903495 
      0.274438271916 
      0.284680855841 
      0.272557521525 
      0.274438271987 
      0.284680855825 
      0.272557521565 
      0.274438271907 
      0.284680855842 
      0.272557521518 
      0.272479460627 
      0.228840105480 
      0.167587033604 
      0.272479460629 
      0.228840105475 
      0.167587033677 
      0.272479460630 
      0.228840105479 
      0.167587033573 
      0.167385919679 
      0.087057766296 
      0.000124638093 
      0.167385919517 
      0.087057766364 
      0.000124638200 
      0.167385920182 
      0.087057766046 
      0.000124639227 
     -0.000123602714 
     -0.087057632849 
     -0.167386655077 
     -0.000123607800 
     -0.087057630247 
     -0.167386666289 
     -0.000123600735 
     -0.087057634168 
     -0.167386647313 
     -0.167591719784 
     -0.228838533045 
     -0.272482482366 
     -0.167591760568 
     -0.228838509182 
     -0.272482616473 
     -0.167591703104 
     -0.228838543852 
     -0.272482408741 
     -0.272558753713 
     -0.284680286408 
     -0.274451069683 
     -0.272559032698 
     -0.284680104289 
     -0.274452265559 
     -0.272558584552 
     -0.284680395959 
     -0.274450305643 
     -0.274358914711 
     -0.231767812619 
     -0.170722397452 
     -0.274359427347 
     -0.231767152278 
     -0.170727823101 
     -0.274357670170 
     -0.231768707838 
     -0.170716141951 
     -0.170527473834 
     -0.088699188155 
     -0.000022631563 
     -0.170526680553 
     -0.088698432505 
     -0.000045197488 
     -0.170527756122 
     -0.088702903630 
     -0.000033310226 
SCALARS  HV  double
LOOKUP_TABLE default
     -0.000039822823 
      0.000004696805 
     -0.000013129130 
      0.000006976307 
     -0.000000426860 
      0.000001680854 
      0.000017631554 
     -0.000002762473 
      0.000003829651 
     -0.000000901298 
     -0.000000033735 
      0.000000043470 
      0.000000387257 
     -0.000000024259 
      0.000000030535 
     -0.000000169492 
      0.000000341579 
     -0.000000510109 
     -0.000000069917 
     -0.000000001090 
      0.000000004944 
      0.000000035724 
     -0.000000003584 
      0.000000004417 
     -0.000000062128 
      0.000000041426 
     -0.000000067977 
     -0.000000006682 
     -0.000000000115 
      0.000000001126 
      0.000000004053 
     -0.000000000487 
      0.000000000650 
     -0.000000005382 
      0.000000004260 
     -0.000000007922 
     -0.000000001048 
      0.000000000155 
     -0.000000000198 
      0.000000000414 
     -0.000000000075 
      0.000000000123 
      0.000000000914 
      0.000000000230 
     -0.000000000534 
     -0.000000000158 
      0.000000000022 
     -0.000000000029 
      0.000000000032 
     -0.000000000006 
      0.000000000010 
      0.000000000301 
     -0.000000000019 
      0.000000000025 
     -0.000000000010 
      0.000000000002 
     -0.000000000003 
      0.000000000000 
     -0.000000000000 
      0.000000000000 
      0.000000000042 
     -0.000000000005 
      0.000000000009 
      0.000000000001 
     -0.000000000000 
      0.000000000002 
     -0.000000000000 
      0.000000000000 
     -0.000000000000 
      0.000000000003 
     -0.000000000000 
      0.000000000001 
      0.000000000003 
     -0.000000000002 
      0.000000000020 
      0.000000000001 
     -0.000000000001 
      0.000000000003 
     -0.000000000003 
      0.000000000002 
     -0.000000000011 
      0.000000000015 
     -0.000000000011 
      0.000000000166 
      0.000000000002 
     -0.000000000002 
      0.000000000014 
     -0.000000000015 
      0.000000000010 
     -0.000000000093 
     -0.000000000858 
      0.000000000406 