# vtk DataFile Version 2.0
NDG-FEM NonhydrostaticStandingWave2d Simulation
ASCII
DATASET UNSTRUCTURED_GRID

POINTS 480 double
0.00000000000000000000  0.00000000000000000000  0.00000000000000000000
1.00000000000000000000  0.00000000000000000000  0.00000000000000000000
2.00000000000000000000  0.00000000000000000000  0.00000000000000000000
0.00000000000000000000  1.00000000000000000000  0.00000000000000000000
1.00000000000000000000  1.00000000000000000000  0.00000000000000000000
0.00000000000000000000  2.00000000000000000000  0.00000000000000000000
2.00000000000000000000  0.00000000000000000000  0.00000000000000000000
3.00000000000000000000  0.00000000000000000000  0.00000000000000000000
4.00000000000000000000  0.00000000000000000000  0.00000000000000000000
2.00000000000000000000  1.00000000000000000000  0.00000000000000000000
3.00000000000000000000  1.00000000000000000000  0.00000000000000000000
2.00000000000000000000  2.00000000000000000000  0.00000000000000000000
4.00000000000000000000  0.00000000000000000000  0.00000000000000000000
5.00000000000000000000  0.00000000000000000000  0.00000000000000000000
6.00000000000000000000  0.00000000000000000000  0.00000000000000000000
4.00000000000000000000  1.00000000000000000000  0.00000000000000000000
5.00000000000000000000  1.00000000000000000000  0.00000000000000000000
4.00000000000000000000  2.00000000000000000000  0.00000000000000000000
6.00000000000000000000  0.00000000000000000000  0.00000000000000000000
7.00000000000000000000  0.00000000000000000000  0.00000000000000000000
8.00000000000000000000  0.00000000000000000000  0.00000000000000000000
6.00000000000000000000  1.00000000000000000000  0.00000000000000000000
7.00000000000000000000  1.00000000000000000000  0.00000000000000000000
6.00000000000000000000  2.00000000000000000000  0.00000000000000000000
8.00000000000000000000  0.00000000000000000000  0.00000000000000000000
9.00000000000000000000  0.00000000000000000000  0.00000000000000000000
10.00000000000000000000  0.00000000000000000000  0.00000000000000000000
8.00000000000000000000  1.00000000000000000000  0.00000000000000000000
9.00000000000000000000  1.00000000000000000000  0.00000000000000000000
8.00000000000000000000  2.00000000000000000000  0.00000000000000000000
10.00000000000000000000  0.00000000000000000000  0.00000000000000000000
11.00000000000000000000  0.00000000000000000000  0.00000000000000000000
12.00000000000000000000  0.00000000000000000000  0.00000000000000000000
10.00000000000000000000  1.00000000000000000000  0.00000000000000000000
11.00000000000000000000  1.00000000000000000000  0.00000000000000000000
10.00000000000000000000  2.00000000000000000000  0.00000000000000000000
12.00000000000000000000  0.00000000000000000000  0.00000000000000000000
13.00000000000000000000  0.00000000000000000000  0.00000000000000000000
14.00000000000000000000  0.00000000000000000000  0.00000000000000000000
12.00000000000000000000  1.00000000000000000000  0.00000000000000000000
13.00000000000000000000  1.00000000000000000000  0.00000000000000000000
12.00000000000000000000  2.00000000000000000000  0.00000000000000000000
14.00000000000000000000  0.00000000000000000000  0.00000000000000000000
15.00000000000000000000  0.00000000000000000000  0.00000000000000000000
16.00000000000000000000  0.00000000000000000000  0.00000000000000000000
14.00000000000000000000  1.00000000000000000000  0.00000000000000000000
15.00000000000000000000  1.00000000000000000000  0.00000000000000000000
14.00000000000000000000  2.00000000000000000000  0.00000000000000000000
16.00000000000000000000  0.00000000000000000000  0.00000000000000000000
17.00000000000000000000  0.00000000000000000000  0.00000000000000000000
18.00000000000000000000  0.00000000000000000000  0.00000000000000000000
16.00000000000000000000  1.00000000000000000000  0.00000000000000000000
17.00000000000000000000  1.00000000000000000000  0.00000000000000000000
16.00000000000000000000  2.00000000000000000000  0.00000000000000000000
18.00000000000000000000  0.00000000000000000000  0.00000000000000000000
19.00000000000000000000  0.00000000000000000000  0.00000000000000000000
20.00000000000000000000  0.00000000000000000000  0.00000000000000000000
18.00000000000000000000  1.00000000000000000000  0.00000000000000000000
19.00000000000000000000  1.00000000000000000000  0.00000000000000000000
18.00000000000000000000  2.00000000000000000000  0.00000000000000000000
2.00000000000000000000  0.00000000000000000000  0.00000000000000000000
2.00000000000000000000  1.00000000000000000000  0.00000000000000000000
2.00000000000000000000  2.00000000000000000000  0.00000000000000000000
1.00000000000000000000  1.00000000000000000000  0.00000000000000000000
1.00000000000000000000  2.00000000000000000000  0.00000000000000000000
0.00000000000000000000  2.00000000000000000000  0.00000000000000000000
4.00000000000000000000  0.00000000000000000000  0.00000000000000000000
4.00000000000000000000  1.00000000000000000000  0.00000000000000000000
4.00000000000000000000  2.00000000000000000000  0.00000000000000000000
3.00000000000000000000  1.00000000000000000000  0.00000000000000000000
3.00000000000000000000  2.00000000000000000000  0.00000000000000000000
2.00000000000000000000  2.00000000000000000000  0.00000000000000000000
6.00000000000000000000  0.00000000000000000000  0.00000000000000000000
6.00000000000000000000  1.00000000000000000000  0.00000000000000000000
6.00000000000000000000  2.00000000000000000000  0.00000000000000000000
5.00000000000000000000  1.00000000000000000000  0.00000000000000000000
5.00000000000000000000  2.00000000000000000000  0.00000000000000000000
4.00000000000000000000  2.00000000000000000000  0.00000000000000000000
8.00000000000000000000  0.00000000000000000000  0.00000000000000000000
8.00000000000000000000  1.00000000000000000000  0.00000000000000000000
8.00000000000000000000  2.00000000000000000000  0.00000000000000000000
7.00000000000000000000  1.00000000000000000000  0.00000000000000000000
7.00000000000000000000  2.00000000000000000000  0.00000000000000000000
6.00000000000000000000  2.00000000000000000000  0.00000000000000000000
10.00000000000000000000  0.00000000000000000000  0.00000000000000000000
10.00000000000000000000  1.00000000000000000000  0.00000000000000000000
10.00000000000000000000  2.00000000000000000000  0.00000000000000000000
9.00000000000000000000  1.00000000000000000000  0.00000000000000000000
9.00000000000000000000  2.00000000000000000000  0.00000000000000000000
8.00000000000000000000  2.00000000000000000000  0.00000000000000000000
12.00000000000000000000  0.00000000000000000000  0.00000000000000000000
12.00000000000000000000  1.00000000000000000000  0.00000000000000000000
12.00000000000000000000  2.00000000000000000000  0.00000000000000000000
11.00000000000000000000  1.00000000000000000000  0.00000000000000000000
11.00000000000000000000  2.00000000000000000000  0.00000000000000000000
10.00000000000000000000  2.00000000000000000000  0.00000000000000000000
14.00000000000000000000  0.00000000000000000000  0.00000000000000000000
14.00000000000000000000  1.00000000000000000000  0.00000000000000000000
14.00000000000000000000  2.00000000000000000000  0.00000000000000000000
13.00000000000000000000  1.00000000000000000000  0.00000000000000000000
13.00000000000000000000  2.00000000000000000000  0.00000000000000000000
12.00000000000000000000  2.00000000000000000000  0.00000000000000000000
16.00000000000000000000  0.00000000000000000000  0.00000000000000000000
16.00000000000000000000  1.00000000000000000000  0.00000000000000000000
16.00000000000000000000  2.00000000000000000000  0.00000000000000000000
15.00000000000000000000  1.00000000000000000000  0.00000000000000000000
15.00000000000000000000  2.00000000000000000000  0.00000000000000000000
14.00000000000000000000  2.00000000000000000000  0.00000000000000000000
18.00000000000000000000  0.00000000000000000000  0.00000000000000000000
18.00000000000000000000  1.00000000000000000000  0.00000000000000000000
18.00000000000000000000  2.00000000000000000000  0.00000000000000000000
17.00000000000000000000  1.00000000000000000000  0.00000000000000000000
17.00000000000000000000  2.00000000000000000000  0.00000000000000000000
16.00000000000000000000  2.00000000000000000000  0.00000000000000000000
20.00000000000000000000  0.00000000000000000000  0.00000000000000000000
20.00000000000000000000  1.00000000000000000000  0.00000000000000000000
20.00000000000000000000  2.00000000000000000000  0.00000000000000000000
19.00000000000000000000  1.00000000000000000000  0.00000000000000000000
19.00000000000000000000  2.00000000000000000000  0.00000000000000000000
18.00000000000000000000  2.00000000000000000000  0.00000000000000000000
0.00000000000000000000  2.00000000000000000000  0.00000000000000000000
1.00000000000000000000  2.00000000000000000000  0.00000000000000000000
2.00000000000000000000  2.00000000000000000000  0.00000000000000000000
0.00000000000000000000  3.00000000000000000000  0.00000000000000000000
1.00000000000000000000  3.00000000000000000000  0.00000000000000000000
0.00000000000000000000  4.00000000000000000000  0.00000000000000000000
2.00000000000000000000  2.00000000000000000000  0.00000000000000000000
3.00000000000000000000  2.00000000000000000000  0.00000000000000000000
4.00000000000000000000  2.00000000000000000000  0.00000000000000000000
2.00000000000000000000  3.00000000000000000000  0.00000000000000000000
3.00000000000000000000  3.00000000000000000000  0.00000000000000000000
2.00000000000000000000  4.00000000000000000000  0.00000000000000000000
4.00000000000000000000  2.00000000000000000000  0.00000000000000000000
5.00000000000000000000  2.00000000000000000000  0.00000000000000000000
6.00000000000000000000  2.00000000000000000000  0.00000000000000000000
4.00000000000000000000  3.00000000000000000000  0.00000000000000000000
5.00000000000000000000  3.00000000000000000000  0.00000000000000000000
4.00000000000000000000  4.00000000000000000000  0.00000000000000000000
[...]
POINT_DATA 480
SCALARS  H  double
LOOKUP_TABLE default
      7.544759414022 
      7.548080444100 
      7.557508225091 
      7.544725278320 
      7.548034540191 
      7.544601390780 
      7.557373344536 
      7.572463955939 
      7.591013399550 
      7.557509227218 
      7.572382873238 
      7.557487877482 
      7.590864507010 
      7.611984898329 
      7.632585466112 
      7.591074597710 
      7.611891233541 
      7.591053650293 
      7.632478314632 
      7.651594451974 
      7.666355625031 
      7.632690978140 
      7.651514774320 
      7.632670116015 
      7.666326337738 
      7.676098080332 
      7.679369228316 
      7.666467568184 
      7.676067362773 
      7.666451758970 
      7.679398738643 
      7.676062514114 
      7.666553121708 
      7.679415340377 
      7.676084141600 
      7.679407304005 
      7.666668912344 
      7.651492094399 
      7.632873989850 
      7.666540390838 
      7.651565181185 
      7.666544750229 
      7.633036692763 
      7.611856130248 
      7.591283356608 
      7.632808630185 
      7.611955411619 
      7.632816696883 
      7.591428173285 
      7.572352522103 
      7.557675492676 
      7.591193927495 
      7.572436560470 
      7.591203135753 
      7.557742743348 
      7.548015447035 
      7.544748421059 
      7.557590392174 
      7.548065633557 
      7.557585545673 
      7.557438838761 
      7.557566348274 
      7.557562271591 
      7.548038948946 
      7.548042333017 
      7.544633244782 
      7.590947805374 
      7.591160302185 
      7.591158340749 
      7.572399490837 
      7.572406280771 
      7.557462111970 
      7.632545844155 
      7.632770749827 
      7.632762199263 
      7.611913718985 
      7.611929851977 
      7.591001418434 
      7.666358588170 
      7.666514095120 
      7.666497128228 
      7.651534522469 
      7.651554530707 
      7.632612328893 
      7.679389011918 
      7.679406663706 
      7.679402257187 
      7.676076704497 
      7.676094146168 
      7.666409298323 
      7.666603200598 
      7.666480254685 
      7.666483345814 
      7.676085175612 
      7.676093491749 
      7.679394553979 
      7.632939650091 
      7.632721483210 
      7.632718973295 
      7.651556370085 
      7.651551311382 
      7.666562342755 
      7.591337056145 
      7.591110444248 
      7.591102992482 
      7.611940413423 
      7.611921953416 
      7.632872495279 
      7.557695866509 
      7.557543088580 
      7.557520649929 
      7.572421335900 
      7.572397529087 
      7.591275255562 
      7.544706476323 
      7.544691061315 
      7.544633607993 
      7.548056884132 
      7.548035674325 
      7.557644916848 
      7.544632421466 
      7.548033770155 
      7.557610017389 
      7.544689086424 
      7.548042074989 
      7.544595709839 
      7.557492725234 
      7.572389237151 
      7.591229104215 
      7.557535453473 
      7.572398236059 
      7.557503690206 
      7.591061008112 
      7.611907925293 
      7.632828705697 
      7.591096510422 
      7.611917497549 
      7.591079307647 
      7.632675945924 
      7.651538307723 
      7.666534287753 
      7.632699332685 
      7.651544126133 
      7.632692967022 
      7.666453050234 
      7.676087391913 
      7.679392810075 
      7.666456927741 
      7.676088009449 
      7.666464987114 
      7.679399327342 
      7.676098215637 
      7.666436661756 
      7.679390169059 
      7.676088971533 
      7.679405733628 
      7.666524027573 
      7.651567198714 
      7.632656632999 
      7.666505921629 
      7.651555201565 
      7.666526998367 
      7.632810193198 
      7.611942368129 
      7.591047686490 
      7.632780183975 
      7.611934270387 
      7.632792268788 
      7.591211319037 
      7.572416143690 
      7.557495288323 
      7.591180977832 
      7.572414182601 
      7.591177974540 
      7.557604571113 
      7.548045218089 
      7.544635539753 
      7.557590425344 
      7.548051054912 
      7.557566438172 
      7.557550466725 
      7.557591124787 
      7.557583956629 
      7.548048735186 
      7.548043264425 
      7.544624455227 
      7.591157377209 
      7.591181999806 
      7.591188299194 
      7.572414073462 
      7.572412329475 
      7.557474604066 
      7.632773174124 
      7.632781032824 
      7.632787638303 
      7.611935488700 
      7.611937283021 
      7.591022825799 
      7.666516830954 
      7.666506150512 
      7.666510032731 
      7.651556694274 
      7.651562470777 
      7.632633105807 
      7.679407827771 
      7.679389487955 
      7.679396311731 
      7.676089850409 
      7.676096609630 
      7.666422172118 
      7.666478737104 
      7.666455477781 
      7.666462288683 
      7.676087534969 
      7.676091327301 
      7.679390915069 
      7.632715982268 
      7.632697832383 
      7.632693493001 
      7.651542824060 
      7.651546174472 
      7.666545441445 
      7.591102843810 
      7.591095662714 
      7.591080317613 
      7.611916843626 
      7.611915658984 
      7.632849037735 
      7.557524205827 
      7.557535477460 
      7.557506866050 
      7.572398241624 
      7.572393720238 
      7.591251298097 
      7.544605568413 
      7.544683915748 
      7.544629831677 
      7.548044465924 
      7.548034116872 
      7.557625885083 
      7.544629831677 
      7.548034116872 
      7.557625885083 
      7.544683915748 
      7.548044465924 
      7.544605568413 
      7.557506866050 
      7.572393720238 
      7.591251298097 
      7.557535477460 
      7.572398241624 
      7.557524205827 
      7.591080317613 
      7.611915658984 
      7.632849037735 
      7.591095662714 
      7.611916843626 
      7.591102843810 
      7.632693493001 
      7.651546174472 
      7.666545441445 
      7.632697832383 
      7.651542824060 
      7.632715982268 
      7.666462288683 
      7.676091327301 
      7.679390915069 
      7.666455477781 
      7.676087534969 
      7.666478737104 
      7.679396311731 
      7.676096609630 
      7.666422172118 
      7.679389487955 
      7.676089850409 
      7.679407827771 
      7.666510032731 
      7.651562470777 
      7.632633105807 
      7.666506150512 
      7.651556694274 
      7.666516830954 
      7.632787638303 
      7.611937283021 
      7.591022825799 
      7.632781032824 
      7.611935488700 
      7.632773174124 
      7.591188299194 
      7.572412329475 
      7.557474604066 
      7.591181999806 
      7.572414073462 
      7.591157377209 
      7.557583956629 
      7.548043264425 
      7.544624455227 
      7.557591124787 
      7.548048735186 
      7.557550466725 
      7.557566438172 
      7.557590425344 
      7.557604571113 
      7.548051054912 
      7.548045218089 
      7.544635539753 
      7.591177974540 
      7.591180977832 
      7.591211319037 
      7.572414182601 
      7.572416143690 
      7.557495288323 
      7.632792268788 
      7.632780183975 
      7.632810193198 
      7.611934270387 
      7.611942368129 
      7.591047686490 
      7.666526998367 
      7.666505921629 
      7.666524027573 
      7.651555201565 
      7.651567198714 
      7.632656632999 
      7.679405733628 
      7.679390169059 
      7.679399327342 
      7.676088971533 
      7.676098215637 
      7.666436661756 
      7.666464987114 
      7.666456927741 
      7.666453050234 
      7.676088009449 
      7.676087391913 
      7.679392810075 
      7.632692967022 
      7.632699332685 
      7.632675945924 
      7.651544126133 
      7.651538307723 
      7.666534287753 
      7.591079307647 
      7.591096510422 
      7.591061008112 
      7.611917497549 
      7.611907925293 
      7.632828705697 
      7.557503690206 
      7.557535453473 
      7.557492725234 
      7.572398236059 
      7.572389237151 
      7.591229104215 
      7.544595709839 
      7.544689086424 
      7.544632421466 
      7.548042074989 
      7.548033770155 
      7.557610017389 
      7.544633607993 
      7.548035674325 
      7.557644916848 
      7.544691061315 
      7.548056884132 
      7.544706476323 
      7.557520649929 
      7.572397529087 
      7.591275255562 
      7.557543088580 
      7.572421335900 
      7.557695866509 
      7.591102992482 
      7.611921953416 
      7.632872495279 
      7.591110444248 
      7.611940413423 
      7.591337056145 
      7.632718973295 
      7.651551311382 
      7.666562342755 
      7.632721483210 
      7.651556370085 
      7.632939650091 
      7.666483345814 
      7.676093491749 
      7.679394553979 
      7.666480254685 
      7.676085175612 
      7.666603200598 
      7.679402257187 
      7.676094146168 
      7.666409298323 
      7.679406663706 
      7.676076704497 
      7.679389011918 
      7.666497128228 
      7.651554530707 
      7.632612328893 
      7.666514095120 
      7.651534522469 
      7.666358588170 
      7.632762199263 
      7.611929851977 
      7.591001418434 
      7.632770749827 
      7.611913718985 
      7.632545844155 
      7.591158340749 
      7.572406280771 
      7.557462111970 
      7.591160302185 
      7.572399490837 
      7.590947805374 
      7.557562271591 
      7.548042333017 
      7.544633244782 
      7.557566348274 
      7.548038948946 
      7.557438838761 
      7.557585545673 
      7.557590392174 
      7.557742743348 
      7.548065633557 
      7.548015447035 
      7.544748421059 
      7.591203135753 
      7.591193927495 
      7.591428173285 
      7.572436560470 
      7.572352522103 
      7.557675492676 
      7.632816696883 
      7.632808630185 
      7.633036692763 
      7.611955411619 
      7.611856130248 
      7.591283356608 
      7.666544750229 
      7.666540390838 
      7.666668912344 
      7.651565181185 
      7.651492094399 
      7.632873989850 
      7.679407304005 
      7.679415340377 
      7.679398738643 
      7.676084141600 
      7.676062514114 
      7.666553121708 
      7.666451758970 
      7.666467568184 
      7.666326337738 
      7.676067362773 
      7.676098080332 
      7.679369228316 
      7.632670116015 
      7.632690978140 
      7.632478314632 
      7.651514774320 
      7.651594451974 
      7.666355625031 
      7.591053650293 
      7.591074597710 
      7.590864507010 
      7.611891233541 
      7.611984898329 
      7.632585466112 
      7.557487877482 
      7.557509227218 
      7.557373344536 
      7.572382873238 
      7.572463955939 
      7.591013399550 
      7.544601390780 
      7.544725278320 
      7.544759414022 
      7.548034540191 
      7.548080444100 
      7.557508225091 
SCALARS  HU  double
LOOKUP_TABLE default
      0.000367137664 
     -0.126317727729 
     -0.244041771135 
      0.000259862799 
     -0.126947045487 
      0.000538946591 
     -0.241888597605 
     -0.331675981454 
     -0.391986532088 
     -0.241385214826 
     -0.331998329032 
     -0.241491782463 
     -0.390660548601 
     -0.409425141846 
     -0.389798024834 
     -0.390230831750 
     -0.409452993029 
     -0.390454553075 
     -0.389767602372 
     -0.330808275391 
     -0.239205291305 
     -0.389548579646 
     -0.330512754822 
     -0.389839910346 
     -0.240484424167 
     -0.126518012859 
      0.001969977758 
     -0.240566852476 
     -0.126071981305 
     -0.240773180748 
      0.000017218202 
      0.125611742479 
      0.242425529608 
     -0.000414304962 
      0.126112382750 
     -0.000468015274 
      0.240500551935 
      0.330167437907 
      0.391042077143 
      0.239932480226 
      0.330566548203 
      0.239953010350 
      0.389864706164 
      0.409374183906 
      0.390757554501 
      0.389327679362 
      0.409474332343 
      0.389523157761 
      0.390762756688 
      0.332200987654 
      0.240743413866 
      0.390479251661 
      0.331974927225 
      0.390761255354 
      0.241978473722 
      0.127419073158 
     -0.001855944591 
      0.242013026505 
      0.126847094410 
      0.242329392638 
     -0.242654006599 
     -0.241861754084 
     -0.242438897984 
     -0.127362199090 
     -0.127164755140 
      0.001627005301 
     -0.390988397405 
     -0.390411309818 
     -0.390916199123 
     -0.332260207674 
     -0.332145553970 
     -0.240958950306 
     -0.389544902272 
     -0.389368256198 
     -0.389649387839 
     -0.409481570115 
     -0.409473530274 
     -0.390628267349 
     -0.239768922090 
     -0.240070209547 
     -0.240018473626 
     -0.330306444343 
     -0.330396536631 
     -0.390627348947 
      0.000772193274 
      0.000223016742 
      0.000516201872 
     -0.125707407985 
     -0.125844032009 
     -0.241890325178 
      0.241113602502 
      0.240424952156 
      0.240903711238 
      0.126483841981 
      0.126323780248 
     -0.001433184351 
      0.390084527710 
      0.389510090755 
      0.389990504062 
      0.330803868961 
      0.330685822380 
      0.239514171481 
      0.390504798433 
      0.390291031938 
      0.390593589251 
      0.409492538724 
      0.409451978131 
      0.389752167557 
      0.241318915943 
      0.241512943767 
      0.241538524018 
      0.331758651321 
      0.331819261660 
      0.391596866779 
     -0.000602028861 
     -0.000342737526 
     -0.000625122842 
      0.126460900409 
      0.126629614123 
      0.243501425061 
      0.000615200246 
     -0.126616478445 
     -0.243593998902 
      0.000340462074 
     -0.126637931056 
      0.000571365656 
     -0.241592816066 
     -0.331807699889 
     -0.391666466894 
     -0.241445847312 
     -0.331824156322 
     -0.241404717167 
     -0.390583733463 
     -0.409459724286 
     -0.389758350899 
     -0.390281613817 
     -0.409430725905 
     -0.390418508795 
     -0.389912966127 
     -0.330710718673 
     -0.239455482924 
     -0.389565975628 
     -0.330644346954 
     -0.389858460199 
     -0.240790968161 
     -0.126357403538 
      0.001533462299 
     -0.240525895464 
     -0.126299465064 
     -0.240843772229 
     -0.000376148649 
      0.125810040150 
      0.241955369913 
     -0.000361867253 
      0.125886416269 
     -0.000566904050 
      0.240121547665 
      0.330372416470 
      0.390676638512 
      0.239963087689 
      0.330395096264 
      0.239877753530 
      0.389680232985 
      0.409456269615 
      0.390653204874 
      0.389350320760 
      0.409436948085 
      0.389500580719 
      0.390862386624 
      0.332142074180 
      0.240937865893 
      0.390480491071 
      0.332083949356 
      0.390806836190 
      0.242320306953 
      0.127180086421 
     -0.001650940996 
      0.241995245604 
      0.127070562477 
      0.242407926981 
     -0.242429089164 
     -0.242008254008 
     -0.242329330888 
     -0.127095139374 
     -0.127170819651 
      0.001663662303 
     -0.390835355196 
     -0.390491128425 
     -0.390863718778 
     -0.332090629597 
     -0.332151811424 
     -0.240922412954 
     -0.389516475338 
     -0.389356109847 
     -0.389674562381 
     -0.409437563201 
     -0.409467278872 
     -0.390616443384 
     -0.239881249931 
     -0.239968196252 
     -0.240111734478 
     -0.330393279509 
     -0.330378101785 
     -0.390638217998 
      0.000575785121 
      0.000362783278 
      0.000397369496 
     -0.125885595748 
     -0.125810258037 
     -0.241930417500 
      0.240850565463 
      0.240531836380 
      0.240797374708 
      0.126300521793 
      0.126358883121 
     -0.001512000352 
      0.389877948924 
      0.389573289846 
      0.389909948570 
      0.330645702907 
      0.330714850029 
      0.239460489212 
      0.390442853133 
      0.390281798010 
      0.390571091867 
      0.409432029680 
      0.409462301092 
      0.389742027970 
      0.241413851229 
      0.241431342473 
      0.241575114109 
      0.331819994839 
      0.331803646129 
      0.391630295460 
     -0.000563889195 
     -0.000354509777 
     -0.000619049881 
      0.126618623679 
      0.126589131182 
      0.243561805188 
      0.000619049881 
     -0.126589131182 
     -0.243561805188 
      0.000354509777 
     -0.126618623679 
      0.000563889195 
     -0.241575114109 
     -0.331803646129 
     -0.391630295460 
     -0.241431342473 
     -0.331819994839 
     -0.241413851229 
     -0.390571091867 
     -0.409462301092 
     -0.389742027970 
     -0.390281798010 
     -0.409432029680 
     -0.390442853133 
     -0.389909948570 
     -0.330714850029 
     -0.239460489212 
     -0.389573289846 
     -0.330645702907 
     -0.389877948924 
     -0.240797374708 
     -0.126358883121 
      0.001512000352 
     -0.240531836380 
     -0.126300521793 
     -0.240850565463 
     -0.000397369496 
      0.125810258037 
      0.241930417500 
     -0.000362783278 
      0.125885595748 
     -0.000575785121 
      0.240111734478 
      0.330378101785 
      0.390638217998 
      0.239968196252 
      0.330393279509 
      0.239881249931 
      0.389674562381 
      0.409467278872 
      0.390616443384 
      0.389356109847 
      0.409437563201 
      0.389516475338 
      0.390863718778 
      0.332151811424 
      0.240922412954 
      0.390491128425 
      0.332090629597 
      0.390835355196 
      0.242329330888 
      0.127170819651 
     -0.001663662303 
      0.242008254008 
      0.127095139374 
      0.242429089164 
     -0.242407926981 
     -0.241995245604 
     -0.242320306953 
     -0.127070562477 
     -0.127180086421 
      0.001650940996 
     -0.390806836190 
     -0.390480491071 
     -0.390862386624 
     -0.332083949356 
     -0.332142074180 
     -0.240937865893 
     -0.389500580719 
     -0.389350320760 
     -0.389680232985 
     -0.409436948085 
     -0.409456269615 
     -0.390653204874 
     -0.239877753530 
     -0.239963087689 
     -0.240121547665 
     -0.330395096264 
     -0.330372416470 
     -0.390676638512 
      0.000566904050 
      0.000361867253 
      0.000376148649 
     -0.125886416269 
     -0.125810040150 
     -0.241955369913 
      0.240843772229 
      0.240525895464 
      0.240790968161 
      0.126299465064 
      0.126357403538 
     -0.001533462299 
      0.389858460199 
      0.389565975628 
      0.389912966127 
      0.330644346954 
      0.330710718673 
      0.239455482924 
      0.390418508795 
      0.390281613817 
      0.390583733463 
      0.409430725905 
      0.409459724286 
      0.389758350899 
      0.241404717167 
      0.241445847312 
      0.241592816066 
      0.331824156322 
      0.331807699889 
      0.391666466894 
     -0.000571365656 
     -0.000340462074 
     -0.000615200246 
      0.126637931056 
      0.126616478445 
      0.243593998902 
      0.000625122842 
     -0.126629614123 
     -0.243501425061 
      0.000342737526 
     -0.126460900409 
      0.000602028861 
     -0.241538524018 
     -0.331819261660 
     -0.391596866779 
     -0.241512943767 
     -0.331758651321 
     -0.241318915943 
     -0.390593589251 
     -0.409451978131 
     -0.389752167557 
     -0.390291031938 
     -0.409492538724 
     -0.390504798433 
     -0.389990504062 
     -0.330685822380 
     -0.239514171481 
     -0.389510090755 
     -0.330803868961 
     -0.390084527710 
     -0.240903711238 
     -0.126323780248 
      0.001433184351 
     -0.240424952156 
     -0.126483841981 
     -0.241113602502 
     -0.000516201872 
      0.125844032009 
      0.241890325178 
     -0.000223016742 
      0.125707407985 
     -0.000772193274 
      0.240018473626 
      0.330396536631 
      0.390627348947 
      0.240070209547 
      0.330306444343 
      0.239768922090 
      0.389649387839 
      0.409473530274 
      0.390628267349 
      0.389368256198 
      0.409481570115 
      0.389544902272 
      0.390916199123 
      0.332145553970 
      0.240958950306 
      0.390411309818 
      0.332260207674 
      0.390988397405 
      0.242438897984 
      0.127164755140 
     -0.001627005301 
      0.241861754084 
      0.127362199090 
      0.242654006599 
     -0.242329392638 
     -0.242013026505 
     -0.241978473722 
     -0.126847094410 