# vtk DataFile Version 2.0
NDG-FEM NonhydrostaticStandingWave2d Simulation
ASCII
DATASET UNSTRUCTURED_GRID

POINTS 160 double
0.00000000000000000000  0.00000000000000000000  0.00000000000000000000
1.00000000000000000000  0.00000000000000000000  0.00000000000000000000
0.00000000000000000000  1.00000000000000000000  0.00000000000000000000
1.00000000000000000000  1.00000000000000000000  0.00000000000000000000
1.00000000000000000000  0.00000000000000000000  0.00000000000000000000
2.00000000000000000000  0.00000000000000000000  0.00000000000000000000
1.00000000000000000000  1.00000000000000000000  0.00000000000000000000
2.00000000000000000000  1.00000000000000000000  0.00000000000000000000
2.00000000000000000000  0.00000000000000000000  0.00000000000000000000
3.00000000000000000000  0.00000000000000000000  0.00000000000000000000
2.00000000000000000000  1.00000000000000000000  0.00000000000000000000
3.00000000000000000000  1.00000000000000000000  0.00000000000000000000
3.00000000000000000000  0.00000000000000000000  0.00000000000000000000
4.00000000000000000000  0.00000000000000000000  0.00000000000000000000
3.00000000000000000000  1.00000000000000000000  0.00000000000000000000
4.00000000000000000000  1.00000000000000000000  0.00000000000000000000
4.00000000000000000000  0.00000000000000000000  0.00000000000000000000
5.00000000000000000000  0.00000000000000000000  0.00000000000000000000
4.00000000000000000000  1.00000000000000000000  0.00000000000000000000
5.00000000000000000000  1.00000000000000000000  0.00000000000000000000
5.00000000000000000000  0.00000000000000000000  0.00000000000000000000
6.00000000000000000000  0.00000000000000000000  0.00000000000000000000
5.00000000000000000000  1.00000000000000000000  0.00000000000000000000
6.00000000000000000000  1.00000000000000000000  0.00000000000000000000
6.00000000000000000000  0.00000000000000000000  0.00000000000000000000
7.00000000000000000000  0.00000000000000000000  0.00000000000000000000
6.00000000000000000000  1.00000000000000000000  0.00000000000000000000
7.00000000000000000000  1.00000000000000000000  0.00000000000000000000
7.00000000000000000000  0.00000000000000000000  0.00000000000000000000
8.00000000000000000000  0.00000000000000000000  0.00000000000000000000
7.00000000000000000000  1.00000000000000000000  0.00000000000000000000
8.00000000000000000000  1.00000000000000000000  0.00000000000000000000
8.00000000000000000000  0.00000000000000000000  0.00000000000000000000
9.00000000000000000000  0.00000000000000000000  0.00000000000000000000
8.00000000000000000000  1.00000000000000000000  0.00000000000000000000
9.00000000000000000000  1.00000000000000000000  0.00000000000000000000
9.00000000000000000000  0.00000000000000000000  0.00000000000000000000
10.00000000000000000000  0.00000000000000000000  0.00000000000000000000
9.00000000000000000000  1.00000000000000000000  0.00000000000000000000
10.00000000000000000000  1.00000000000000000000  0.00000000000000000000
10.00000000000000000000  0.00000000000000000000  0.00000000000000000000
11.00000000000000000000  0.00000000000000000000  0.00000000000000000000
10.00000000000000000000  1.00000000000000000000  0.00000000000000000000
11.00000000000000000000  1.00000000000000000000  0.00000000000000000000
11.00000000000000000000  0.00000000000000000000  0.00000000000000000000
12.00000000000000000000  0.00000000000000000000  0.00000000000000000000
11.00000000000000000000  1.00000000000000000000  0.00000000000000000000
12.00000000000000000000  1.00000000000000000000  0.00000000000000000000
12.00000000000000000000  0.00000000000000000000  0.00000000000000000000
13.00000000000000000000  0.00000000000000000000  0.00000000000000000000
12.00000000000000000000  1.00000000000000000000  0.00000000000000000000
13.00000000000000000000  1.00000000000000000000  0.00000000000000000000
13.00000000000000000000  0.00000000000000000000  0.00000000000000000000
14.00000000000000000000  0.00000000000000000000  0.00000000000000000000
13.00000000000000000000  1.00000000000000000000  0.00000000000000000000
14.00000000000000000000  1.00000000000000000000  0.00000000000000000000
14.00000000000000000000  0.00000000000000000000  0.00000000000000000000
15.00000000000000000000  0.00000000000000000000  0.00000000000000000000
14.00000000000000000000  1.00000000000000000000  0.00000000000000000000
15.00000000000000000000  1.00000000000000000000  0.00000000000000000000
15.00000000000000000000  0.00000000000000000000  0.00000000000000000000
16.00000000000000000000  0.00000000000000000000  0.00000000000000000000
15.00000000000000000000  1.00000000000000000000  0.00000000000000000000
16.00000000000000000000  1.00000000000000000000  0.00000000000000000000
16.00000000000000000000  0.00000000000000000000  0.00000000000000000000
17.00000000000000000000  0.00000000000000000000  0.00000000000000000000
16.00000000000000000000  1.00000000000000000000  0.00000000000000000000
17.00000000000000000000  1.00000000000000000000  0.00000000000000000000
17.00000000000000000000  0.00000000000000000000  0.00000000000000000000
18.00000000000000000000  0.00000000000000000000  0.00000000000000000000
17.00000000000000000000  1.00000000000000000000  0.00000000000000000000
18.00000000000000000000  1.00000000000000000000  0.00000000000000000000
18.00000000000000000000  0.00000000000000000000  0.00000000000000000000
19.00000000000000000000  0.00000000000000000000  0.00000000000000000000
18.00000000000000000000  1.00000000000000000000  0.00000000000000000000
19.00000000000000000000  1.00000000000000000000  0.00000000000000000000
19.00000000000000000000  0.00000000000000000000  0.00000000000000000000
20.00000000000000000000  0.00000000000000000000  0.00000000000000000000
19.00000000000000000000  1.00000000000000000000  0.00000000000000000000
20.00000000000000000000  1.00000000000000000000  0.00000000000000000000
0.00000000000000000000  1.00000000000000000000  0.00000000000000000000
1.00000000000000000000  1.00000000000000000000  0.00000000000000000000
0.00000000000000000000  2.00000000000000000000  0.00000000000000000000
1.00000000000000000000  2.00000000000000000000  0.00000000000000000000
1.00000000000000000000  1.00000000000000000000  0.00000000000000000000
2.00000000000000000000  1.00000000000000000000  0.00000000000000000000
1.00000000000000000000  2.00000000000000000000  0.00000000000000000000
2.00000000000000000000  2.00000000000000000000  0.00000000000000000000
2.00000000000000000000  1.00000000000000000000  0.00000000000000000000
3.00000000000000000000  1.00000000000000000000  0.00000000000000000000
2.00000000000000000000  2.00000000000000000000  0.00000000000000000000
3.00000000000000000000  2.00000000000000000000  0.00000000000000000000
3.00000000000000000000  1.00000000000000000000  0.00000000000000000000
4.00000000000000000000  1.00000000000000000000  0.00000000000000000000
3.00000000000000000000  2.00000000000000000000  0.00000000000000000000
4.00000000000000000000  2.00000000000000000000  0.00000000000000000000
4.00000000000000000000  1.00000000000000000000  0.00000000000000000000
5.00000000000000000000  1.00000000000000000000  0.00000000000000000000
4.00000000000000000000  2.00000000000000000000  0.00000000000000000000
5.00000000000000000000  2.00000000000000000000  0.00000000000000000000
5.00000000000000000000  1.00000000000000000000  0.00000000000000000000
6.00000000000000000000  1.00000000000000000000  0.00000000000000000000
5.00000000000000000000  2.00000000000000000000  0.00000000000000000000
6.00000000000000000000  2.00000000000000000000  0.00000000000000000000
6.00000000000000000000  1.00000000000000000000  0.00000000000000000000
7.00000000000000000000  1.00000000000000000000  0.00000000000000000000
6.00000000000000000000  2.00000000000000000000  0.00000000000000000000
7.00000000000000000000  2.00000000000000000000  0.00000000000000000000
7.00000000000000000000  1.00000000000000000000  0.00000000000000000000
8.00000000000000000000  1.00000000000000000000  0.00000000000000000000
7.00000000000000000000  2.00000000000000000000  0.00000000000000000000
8.00000000000000000000  2.00000000000000000000  0.00000000000000000000
8.00000000000000000000  1.00000000000000000000  0.00000000000000000000
9.00000000000000000000  1.00000000000000000000  0.00000000000000000000
8.00000000000000000000  2.00000000000000000000  0.00000000000000000000
9.00000000000000000000  2.00000000000000000000  0.00000000000000000000
9.00000000000000000000  1.00000000000000000000  0.00000000000000000000
10.00000000000000000000  1.00000000000000000000  0.00000000000000000000
9.00000000000000000000  2.00000000000000000000  0.00000000000000000000
10.00000000000000000000  2.00000000000000000000  0.00000000000000000000
10.00000000000000000000  1.00000000000000000000  0.00000000000000000000
11.00000000000000000000  1.00000000000000000000  0.00000000000000000000
10.00000000000000000000  2.00000000000000000000  0.00000000000000000000
11.00000000000000000000  2.00000000000000000000  0.00000000000000000000
11.00000000000000000000  1.00000000000000000000  0.00000000000000000000
12.00000000000000000000  1.00000000000000000000  0.00000000000000000000
11.00000000000000000000  2.00000000000000000000  0.00000000000000000000
12.00000000000000000000  2.00000000000000000000  0.00000000000000000000
12.00000000000000000000  1.00000000000000000000  0.00000000000000000000
13.00000000000000000000  1.00000000000000000000  0.00000000000000000000
12.00000000000000000000  2.00000000000000000000  0.00000000000000000000
13.00000000000000000000  2.00000000000000000000  0.00000000000000000000
13.00000000000000000000  1.00000000000000000000  0.00000000000000000000
14.00000000000000000000  1.00000000000000000000  0.00000000000000000000
13.00000000000000000000  2.00000000000000000000  0.00000000000000000000
14.00000000000000000000  2.00000000000000000000  0.00000000000000000000
14.00000000000000000000  1.00000000000000000000  0.00000000000000000000
15.00000000000000000000  1.00000000000000000000  0.00000000000000000000
14.00000000000000000000  2.00000000000000000000  0.00000000000000000000
15.00000000000000000000  2.00000000000000000000  0.00000000000000000000
15.00000000000000000000  1.00000000000000000000  0.00000000000000000000
16.00000000000000000000  1.00000000000000000000  0.00000000000000000000
15.00000000000000000000  2.00000000000000000000  0.00000000000000000000
16.00000000000000000000  2.00000000000000000000  0.00000000000000000000
16.00000000000000000000  1.00000000000000000000  0.00000000000000000000
17.00000000000000000000  1.00000000000000000000  0.00000000000000000000
16.00000000000000000000  2.00000000000000000000  0.00000000000000000000
17.00000000000000000000  2.00000000000000000000  0.00000000000000000000
17.00000000000000000000  1.00000000000000000000  0.00000000000000000000
18.00000000000000000000  1.00000000000000000000  0.00000000000000000000
17.00000000000000000000  2.00000000000000000000  0.00000000000000000000
18.00000000000000000000  2.00000000000000000000  0.00000000000000000000
18.00000000000000000000  1.00000000000000000000  0.00000000000000000000
19.00000000000000000000  1.00000000000000000000  0.00000000000000000000
18.00000000000000000000  2.00000000000000000000  0.00000000000000000000
19.00000000000000000000  2.00000000000000000000  0.00000000000000000000
19.00000000000000000000  1.00000000000000000000  0.00000000000000000000
20.00000000000000000000  1.00000000000000000000  0.00000000000000000000
19.00000000000000000000  2.00000000000000000000  0.00000000000000000000
20.00000000000000000000  2.00000000000000000000  0.00000000000000000000

CELLS 40 200
4 0 1 3 2 
4 4 5 7 6 
4 8 9 11 10 
4 12 13 15 14 
4 16 17 19 18 
4 20 21 23 22 
4 24 25 27 26 
4 28 29 31 30 
4 32 33 35 34 
4 36 37 39 38 
4 40 41 43 42 
4 44 45 47 46 
4 48 49 51 50 
4 52 53 55 54 
4 56 57 59 58 
4 60 61 63 62 
4 64 65 67 66 
4 68 69 71 70 
4 72 73 75 74 
4 76 77 79 78 
4 80 81 83 82 
4 84 85 87 86 
4 88 89 91 90 
4 92 93 95 94 
4 96 97 99 98 
4 100 101 103 102 
4 104 105 107 106 
4 108 109 111 110 
4 112 113 115 114 
4 116 117 119 118 
4 120 121 123 122 
4 124 125 127 126 
4 128 129 131 130 
4 132 133 135 134 
4 136 137 139 138 
4 140 141 143 142 
4 144 145 147 146 
4 148 149 151 150 
4 152 153 155 154 
4 156 157 159 158 

CELL_TYPES 40
9 9 9 9 9 9 9 9 9 9 9 9 
9 9 9 9 9 9 9 9 9 9 9 9 
9 9 9 9 9 9 9 9 9 9 9 9 
9 9 9 9 

POINT_DATA 160
SCALARS  H  double
LOOKUP_TABLE default
      7.513969237282 
      7.517117447472 
      7.513969237282 
      7.517117447472 
      7.517159850318 
      7.531724791175 
      7.517159850318 
      7.531724791175 
      7.531704623189 
      7.553570083952 
      7.531704623189 
      7.553570083952 
      7.553583654672 
      7.581289192335 
      7.553583654672 
      7.581289192335 
      7.581287716985 
      7.611968726958 
      7.581287716985 
      7.611968726958 
      7.611970186962 
      7.642654272641 
      7.611970186962 
      7.642654272641 
      7.642653614349 
      7.670336618566 
      7.642653614349 
      7.670336618566 
      7.670335761893 
      7.692294775854 
      7.670335761893 
      7.692294775854 
      7.692288512843 
      7.706441355362 
      7.692288512843 
      7.706441355362 
      7.706364592418 
      7.711284984774 
      7.706364592418 
      7.711284984774 
      7.711284984774 
      7.706364592418 
      7.711284984774 
      7.706364592418 
      7.706441355362 
      7.692288512843 
      7.706441355362 
      7.692288512843 
      7.692294775854 
      7.670335761893 
      7.692294775854 
      7.670335761893 
      7.670336618566 
      7.642653614349 
      7.670336618566 
      7.642653614349 
      7.642654272641 
      7.611970186962 
      7.642654272641 
      7.611970186962 
      7.611968726958 
      7.581287716985 
      7.611968726958 
      7.581287716985 
      7.581289192335 
      7.553583654672 
      7.581289192335 
      7.553583654672 
      7.553570083952 
      7.531704623189 
      7.553570083952 
      7.531704623189 
      7.531724791175 
      7.517159850318 
      7.531724791175 
      7.517159850318 
      7.517117447472 
      7.513969237282 
      7.517117447472 
      7.513969237282 
      7.513969237282 
      7.517117447472 
      7.513969237282 
      7.517117447472 
      7.517159850318 
      7.531724791175 
      7.517159850318 
      7.531724791175 
      7.531704623189 
      7.553570083952 
      7.531704623189 
      7.553570083952 
      7.553583654672 
      7.581289192335 
      7.553583654672 
      7.581289192335 
      7.581287716985 
      7.611968726958 
      7.581287716985 
      7.611968726958 
      7.611970186962 
      7.642654272641 
      7.611970186962 
      7.642654272641 
      7.642653614349 
      7.670336618566 
      7.642653614349 
      7.670336618566 
      7.670335761893 
      7.692294775854 
      7.670335761893 
      7.692294775854 
      7.692288512843 
      7.706441355362 
      7.692288512843 
      7.706441355362 
      7.706364592418 
      7.711284984774 
      7.706364592418 
      7.711284984774 
      7.711284984774 
      7.706364592418 
      7.711284984774 
      7.706364592418 
      7.706441355362 
      7.692288512843 
      7.706441355362 
      7.692288512843 
      7.692294775854 
      7.670335761893 
      7.692294775854 
      7.670335761893 
      7.670336618566 
      7.642653614349 
      7.670336618566 
      7.642653614349 
      7.642654272641 
      7.611970186962 
      7.642654272641 
      7.611970186962 
      7.611968726958 
      7.581287716985 
      7.611968726958 
      7.581287716985 
      7.581289192335 
      7.553583654672 
      7.581289192335 
      7.553583654672 
      7.553570083952 
      7.531704623189 
      7.553570083952 
      7.531704623189 
      7.531724791175 
      7.517159850318 
      7.531724791175 
      7.517159850318 
      7.517117447472 
      7.513969237282 
      7.517117447472 
      7.513969237282 
SCALARS  HU  double
LOOKUP_TABLE default
     -0.005852830803 
     -0.025453031284 
     -0.005852830803 
     -0.025453031284 
     -0.028588080882 
     -0.039279127850 
     -0.028588080882 
     -0.039279127850 
     -0.044319185729 
     -0.054849267105 
     -0.044319185729 
     -0.054849267105 
     -0.057745213027 
     -0.064057443862 
     -0.057745213027 
     -0.064057443862 
     -0.065593735540 
     -0.067700706018 
     -0.065593735540 
     -0.067700706018 
     -0.067431768896 
     -0.064891468470 
     -0.067431768896 
     -0.064891468470 
     -0.062895656776 
     -0.055942530110 
     -0.062895656776 
     -0.055942530110 
     -0.052420714261 
     -0.041625058306 
     -0.052420714261 
     -0.041625058306 
     -0.036901737623 
     -0.023377334305 
     -0.036901737623 
     -0.023377334305 
     -0.018688193682 
     -0.002065640144 
     -0.018688193682 
     -0.002065640144 
      0.002065640144 
      0.018688193682 
      0.002065640144 
      0.018688193682 
      0.023377334305 
      0.036901737623 
      0.023377334305 
      0.036901737623 
      0.041625058306 
      0.052420714261 
      0.041625058306 
      0.052420714261 
      0.055942530110 
      0.062895656776 
      0.055942530110 
      0.062895656776 
      0.064891468470 
      0.067431768896 
      0.064891468470 
      0.067431768896 
      0.067700706018 
      0.065593735540 
      0.067700706018 
      0.065593735540 
      0.064057443862 
      0.057745213027 
      0.064057443862 
      0.057745213027 
      0.054849267105 
      0.044319185729 
      0.054849267105 
      0.044319185729 
      0.039279127850 
      0.028588080882 
      0.039279127850 
      0.028588080882 
      0.025453031284 
      0.005852830803 
      0.025453031284 
      0.005852830803 
     -0.005852830803 
     -0.025453031284 
     -0.005852830803 
     -0.025453031284 
     -0.028588080882 
     -0.039279127850 
     -0.028588080882 
     -0.039279127850 
     -0.044319185729 
     -0.054849267105 
     -0.044319185729 
     -0.054849267105 
     -0.057745213027 
     -0.064057443862 
     -0.057745213027 
     -0.064057443862 
     -0.065593735540 
     -0.067700706018 
     -0.065593735540 
     -0.067700706018 
     -0.067431768896 
     -0.064891468470 
     -0.067431768896 
     -0.064891468470 
     -0.062895656776 
     -0.055942530110 
     -0.062895656776 
     -0.055942530110 
     -0.052420714261 
     -0.041625058306 
     -0.052420714261 
     -0.041625058306 
     -0.036901737623 
     -0.023377334305 
     -0.036901737623 
     -0.023377334305 
     -0.018688193682 
     -0.002065640144 
     -0.018688193682 
     -0.002065640144 
      0.002065640144 
      0.018688193682 
      0.002065640144 
      0.018688193682 
      0.023377334305 
      0.036901737623 
      0.023377334305 
      0.036901737623 
      0.041625058306 
      0.052420714261 
      0.041625058306 
      0.052420714261 
      0.055942530110 
      0.062895656776 
      0.055942530110 
      0.062895656776 
      0.064891468470 
      0.067431768896 
      0.064891468470 
      0.067431768896 
      0.067700706018 
      0.065593735540 
      0.067700706018 
      0.065593735540 
      0.064057443862 
      0.057745213027 
      0.064057443862 
      0.057745213027 
      0.054849267105 
      0.044319185729 
      0.054849267105 
      0.044319185729 
      0.039279127850 
      0.028588080882 
      0.039279127850 
      0.028588080882 
      0.025453031284 
      0.005852830803 
      0.025453031284 
      0.005852830803 
SCALARS  HV  double
LOOKUP_TABLE default
      0.000000000000 
      0.000000000000 
      0.000000000000 
      0.000000000000 
      0.000000000000 
      0.000000000000 
      0.000000000000 
      0.000000000000 
      0.000000000000 
     -0.000000000000 
      0.000000000000 
      0.000000000000 
     -0.000000000000 
      0.000000000000 
     -0.000000000000 
      0.000000000000 
      0.000000000000 
     -0.000000000000 
      0.000000000000 
     -0.000000000000 
     -0.000000000000 
      0.000000000000 
      0.000000000000 
      0.000000000000 
      0.000000000000 
     -0.000000000000 
      0.000000000000 
     -0.000000000000 
     -0.000000000000 
      0.000000000000 
     -0.000000000000 
      0.000000000000 
     -0.000000000000 
     -0.000000000000 
     -0.000000000000 
     -0.000000000000 
     -0.000000000000 
     -0.000000000000 
     -0.000000000000 
     -0.000000000000 
     -0.000000000000 
     -0.000000000000 
     -0.000000000000 
     -0.000000000000 
     -0.000000000000 
     -0.000000000000 
     -0.000000000000 
     -0.000000000000 
     -0.000000000000 
     -0.000000000000 
     -0.000000000000 
     -0.000000000000 
     -0.000000000000 
     -0.000000000000 
     -0.000000000000 
     -0.000000000000 
     -0.000000000000 
     -0.000000000000 
     -0.000000000000 
     -0.000000000000 
     -0.000000000000 
      0.000000000000 
     -0.000000000000 
      0.000000000000 
      0.000000000000 
      0.000000000000 
      0.000000000000 
      0.000000000000 
      0.000000000000 
      0.000000000000 
      0.000000000000 
      0.000000000000 
      0.000000000000 
      0.000000000000 
      0.000000000000 
      0.000000000000 
      0.000000000000 
     -0.000000000000 
      0.000000000000 
      0.000000000000 
     -0.000000000000 
      0.000000000000 
     -0.000000000000 
      0.000000000000 
      0.000000000000 
     -0.000000000000 
      0.000000000000 
     -0.000000000000 
     -0.000000000000 
     -0.000000000000 
     -0.000000000000 
     -0.000000000000 
     -0.000000000000 
     -0.000000000000 
     -0.000000000000 
     -0.000000000000 
     -0.000000000000 
      0.000000000000 
     -0.000000000000 
      0.000000000000 
      0.000000000000 
      0.000000000000 
      0.000000000000 
      0.000000000000 
      0.000000000000 
      0.000000000000 
      0.000000000000 
      0.000000000000 
      0.000000000000 
      0.000000000000 
      0.000000000000 
      0.000000000000 
      0.000000000000 
      0.000000000000 
      0.000000000000 
      0.000000000000 
      0.000000000000 
     -0.000000000000 
      0.000000000000 
     -0.000000000000 
     -0.000000000000 
     -0.000000000000 
     -0.000000000000 
      0.000000000000 
      0.000000000000 
     -0.000000000000 
      0.000000000000 
     -0.000000000000 
     -0.000000000000 
      0.000000000000 
     -0.000000000000 
      0.000000000000 
      0.000000000000 
     -0.000000000000 
      0.000000000000 
     -0.000000000000 
     -0.000000000000 
     -0.000000000000 
     -0.000000000000 
     -0.000000000000 
     -0.000000000000 
     -0.000000000000 
      0.000000000000 
     -0.000000000000 
      0.000000000000 
     -0.000000000000 
     -0.000000000000 
     -0.000000000000 
     -0.000000000000 
     -0.000000000000 
     -0.000000000000 
     -0.000000000000 
     -0.000000000000 
     -0.000000000000 
     -0.000000000000 
      0.000000000000 
     -0.000000000000 
      0.000000000000 
      0.000000000000 
      0.000000000000 
SCALARS  HW  double
LOOKUP_TABLE default
      0.070933674905 
      0.070459222714 
      0.070933674905 
      0.070459222714 
      0.069899770579 
      0.059729816151 
      0.069899770579 
      0.059729816151 
      0.059377371134 
      0.042974738829 
      0.059377371134 
      0.042974738829 
      0.042696874939 
      0.021330366539 
      0.042696874939 
      0.021330366539 
      0.021190131878 
     -0.002838420381 
      0.021190131878 
     -0.002838420381 
     -0.002833815401 
     -0.027106674687 
     -0.002833815401 
     -0.027106674687 
     -0.026957051801 
     -0.049043750598 
     -0.026957051801 
     -0.049043750598 
     -0.048766400582 
     -0.066462558008 
     -0.048766400582 
     -0.066462558008 
     -0.066080360880 
     -0.077691128149 
     -0.066080360880 
     -0.077691128149 
     -0.077278257638 
     -0.081393716933 
     -0.077278257638 
     -0.081393716933 
     -0.081393716933 
     -0.077278257638 
     -0.081393716933 
     -0.077278257638 
     -0.077691128149 
     -0.066080360880 
     -0.077691128149 
     -0.066080360880 
     -0.066462558008 
     -0.048766400582 
     -0.066462558008 
     -0.048766400582 
     -0.049043750598 
     -0.026957051801 
     -0.049043750598 
     -0.026957051801 
     -0.027106674687 
     -0.002833815401 
     -0.027106674687 
     -0.002833815401 
     -0.002838420381 
      0.021190131878 
     -0.002838420381 
      0.021190131878 
      0.021330366539 
      0.042696874939 
      0.021330366539 
      0.042696874939 
      0.042974738829 
      0.059377371134 
      0.042974738829 
      0.059377371134 
      0.059729816151 
      0.069899770579 
      0.059729816151 
      0.069899770579 
      0.070459222714 
      0.070933674905 
      0.070459222714 
      0.070933674905 
      0.070933674905 
      0.070459222714 
      0.070933674905 
      0.070459222714 
      0.069899770579 
      0.059729816151 
      0.069899770579 
      0.059729816151 
      0.059377371134 
      0.042974738829 
      0.059377371134 
      0.042974738829 
      0.042696874939 
      0.021330366539 
      0.042696874939 
      0.021330366539 
      0.021190131878 
     -0.002838420381 
      0.021190131878 
     -0.002838420381 
     -0.002833815401 
     -0.027106674687 
     -0.002833815401 
     -0.027106674687 
     -0.026957051801 
     -0.049043750598 
     -0.026957051801 
     -0.049043750598 
     -0.048766400582 
     -0.066462558008 
     -0.048766400582 
     -0.066462558008 
     -0.066080360880 
     -0.077691128149 
     -0.066080360880 
     -0.077691128149 
     -0.077278257638 
     -0.081393716933 
     -0.077278257638 
     -0.081393716933 
     -0.081393716933 
     -0.077278257638 
     -0.081393716933 
     -0.077278257638 
     -0.077691128149 
     -0.066080360880 
     -0.077691128149 
     -0.066080360880 
     -0.066462558008 
     -0.048766400582 
     -0.066462558008 
     -0.048766400582 
     -0.049043750598 
     -0.026957051801 
     -0.049043750598 
     -0.026957051801 
     -0.027106674687 
     -0.002833815401 
     -0.027106674687 
     -0.002833815401 
     -0.002838420381 
      0.021190131878 
     -0.002838420381 
      0.021190131878 
      0.021330366539 
      0.042696874939 
      0.021330366539 
      0.042696874939 
      0.042974738829 
      0.059377371134 
      0.042974738829 
      0.059377371134 
      0.059729816151 
      0.069899770579 
      0.059729816151 
      0.069899770579 
      0.070459222714 
      0.070933674905 
      0.070459222714 
      0.070933674905 
SCALARS  q  double
LOOKUP_TABLE default
      0.569450096576 
      0.560732241341 
      0.569450096576 
      0.560732241341 
      0.555744800457 
      0.468099475008 
      0.555744800457 
      0.468099475008 
      0.465604543104 
      0.339919705168 
      0.465604543104 
      0.339919705168 
      0.337609600394 
      0.177041012466 
      0.337609600394 
      0.177041012466 
      0.175848010387 
     -0.001982057385 
      0.175848010387 
     -0.001982057385 
     -0.002104167065 
     -0.180514780181 
     -0.002104167065 
     -0.180514780181 
     -0.179508247026 
     -0.341224259352 
     -0.179508247026 
     -0.341224259352 
     -0.339209390100 
     -0.468439414062 
     -0.339209390100 
     -0.468439414062 
     -0.465590051750 
     -0.550495307352 
     -0.465590051750 
     -0.550495307352 
     -0.547391423657 
     -0.577657441097 
     -0.547391423657 
     -0.577657441097 
     -0.577657441097 
     -0.547391423657 
     -0.577657441097 
     -0.547391423657 
     -0.550495307352 
     -0.465590051750 
     -0.550495307352 
     -0.465590051750 
     -0.468439414062 
     -0.339209390100 
     -0.468439414062 
     -0.339209390100 
     -0.341224259352 
     -0.179508247026 
     -0.341224259352 
     -0.179508247026 
     -0.180514780181 
     -0.002104167065 
     -0.180514780181 
     -0.002104167065 
     -0.001982057385 
      0.175848010387 
     -0.001982057385 
      0.175848010387 
      0.177041012466 
      0.337609600394 
      0.177041012466 
      0.337609600394 
      0.339919705168 
      0.465604543104 
      0.339919705168 
      0.465604543104 
      0.468099475008 
      0.555744800457 
      0.468099475008 
      0.555744800457 
      0.560732241341 
      0.569450096576 
      0.560732241341 
      0.569450096576 
      0.569450096576 
      0.560732241341 
      0.569450096576 
      0.560732241341 
      0.555744800457 
      0.468099475008 
      0.555744800457 
      0.468099475008 
      0.465604543104 
      0.339919705168 
      0.465604543104 
      0.339919705168 
      0.337609600394 
      0.177041012466 
      0.337609600394 
      0.177041012466 
      0.175848010387 
     -0.001982057385 
      0.175848010387 
     -0.001982057385 
     -0.002104167065 
     -0.180514780181 
     -0.002104167065 
     -0.180514780181 
     -0.179508247026 
     -0.341224259352 
     -0.179508247026 
     -0.341224259352 
     -0.339209390100 
     -0.468439414062 
     -0.339209390100 
     -0.468439414062 
     -0.465590051750 
     -0.550495307352 
     -0.465590051750 
     -0.550495307352 
     -0.547391423657 
     -0.577657441097 
     -0.547391423657 
     -0.577657441097 
     -0.577657441097 
     -0.547391423657 
     -0.577657441097 
     -0.547391423657 
     -0.550495307352 
     -0.465590051750 
     -0.550495307352 
     -0.465590051750 
     -0.468439414062 
     -0.339209390100 
     -0.468439414062 
     -0.339209390100 
     -0.341224259352 
     -0.179508247026 
     -0.341224259352 
     -0.179508247026 
     -0.180514780181 
     -0.002104167065 
     -0.180514780181 
     -0.002104167065 
     -0.001982057385 
      0.175848010387 
     -0.001982057385 
      0.175848010387 
      0.177041012466 
      0.337609600394 
      0.177041012466 
      0.337609600394 
      0.339919705168 
      0.465604543104 
      0.339919705168 
      0.465604543104 
      0.468099475008 