# vtk DataFile Version 2.0
NDG-FEM NonhydrostaticStandingWave2d Simulation
ASCII
DATASET UNSTRUCTURED_GRID

POINTS 160 double
0.00000000000000000000  0.00000000000000000000  0.00000000000000000000
1.00000000000000000000  0.00000000000000000000  0.00000000000000000000
0.00000000000000000000  1.00000000000000000000  0.00000000000000000000
1.00000000000000000000  1.00000000000000000000  0.00000000000000000000
1.00000000000000000000  0.00000000000000000000  0.00000000000000000000
2.00000000000000000000  0.00000000000000000000  0.00000000000000000000
1.00000000000000000000  1.00000000000000000000  0.00000000000000000000
2.00000000000000000000  1.00000000000000000000  0.00000000000000000000
2.00000000000000000000  0.00000000000000000000  0.00000000000000000000
3.00000000000000000000  0.00000000000000000000  0.00000000000000000000
2.00000000000000000000  1.00000000000000000000  0.00000000000000000000
3.00000000000000000000  1.00000000000000000000  0.00000000000000000000
3.00000000000000000000  0.00000000000000000000  0.00000000000000000000
4.00000000000000000000  0.00000000000000000000  0.00000000000000000000
3.00000000000000000000  1.00000000000000000000  0.00000000000000000000
4.00000000000000000000  1.00000000000000000000  0.00000000000000000000
4.00000000000000000000  0.00000000000000000000  0.00000000000000000000
5.00000000000000000000  0.00000000000000000000  0.00000000000000000000
4.00000000000000000000  1.00000000000000000000  0.00000000000000000000
5.00000000000000000000  1.00000000000000000000  0.00000000000000000000
5.00000000000000000000  0.00000000000000000000  0.00000000000000000000
6.00000000000000000000  0.00000000000000000000  0.00000000000000000000
5.00000000000000000000  1.00000000000000000000  0.00000000000000000000
6.00000000000000000000  1.00000000000000000000  0.00000000000000000000
6.00000000000000000000  0.00000000000000000000  0.00000000000000000000
7.00000000000000000000  0.00000000000000000000  0.00000000000000000000
6.00000000000000000000  1.00000000000000000000  0.00000000000000000000
7.00000000000000000000  1.00000000000000000000  0.00000000000000000000
7.00000000000000000000  0.00000000000000000000  0.00000000000000000000
8.00000000000000000000  0.00000000000000000000  0.00000000000000000000
7.00000000000000000000  1.00000000000000000000  0.00000000000000000000
8.00000000000000000000  1.00000000000000000000  0.00000000000000000000
8.00000000000000000000  0.00000000000000000000  0.00000000000000000000
9.00000000000000000000  0.00000000000000000000  0.00000000000000000000
8.00000000000000000000  1.00000000000000000000  0.00000000000000000000
9.00000000000000000000  1.00000000000000000000  0.00000000000000000000
9.00000000000000000000  0.00000000000000000000  0.00000000000000000000
10.00000000000000000000  0.00000000000000000000  0.00000000000000000000
9.00000000000000000000  1.00000000000000000000  0.00000000000000000000
10.00000000000000000000  1.00000000000000000000  0.00000000000000000000
10.00000000000000000000  0.00000000000000000000  0.00000000000000000000
11.00000000000000000000  0.00000000000000000000  0.00000000000000000000
10.00000000000000000000  1.00000000000000000000  0.00000000000000000000
11.00000000000000000000  1.00000000000000000000  0.00000000000000000000
11.00000000000000000000  0.00000000000000000000  0.00000000000000000000
12.00000000000000000000  0.00000000000000000000  0.00000000000000000000
11.00000000000000000000  1.00000000000000000000  0.00000000000000000000
12.00000000000000000000  1.00000000000000000000  0.00000000000000000000
12.00000000000000000000  0.00000000000000000000  0.00000000000000000000
13.00000000000000000000  0.00000000000000000000  0.00000000000000000000
12.00000000000000000000  1.00000000000000000000  0.00000000000000000000
13.00000000000000000000  1.00000000000000000000  0.00000000000000000000
13.00000000000000000000  0.00000000000000000000  0.00000000000000000000
14.00000000000000000000  0.00000000000000000000  0.00000000000000000000
13.00000000000000000000  1.00000000000000000000  0.00000000000000000000
14.00000000000000000000  1.00000000000000000000  0.00000000000000000000
14.00000000000000000000  0.00000000000000000000  0.00000000000000000000
15.00000000000000000000  0.00000000000000000000  0.00000000000000000000
14.00000000000000000000  1.00000000000000000000  0.00000000000000000000
15.00000000000000000000  1.00000000000000000000  0.00000000000000000000
15.00000000000000000000  0.00000000000000000000  0.00000000000000000000
16.00000000000000000000  0.00000000000000000000  0.00000000000000000000
15.00000000000000000000  1.00000000000000000000  0.00000000000000000000
16.00000000000000000000  1.00000000000000000000  0.00000000000000000000
16.00000000000000000000  0.00000000000000000000  0.00000000000000000000
17.00000000000000000000  0.00000000000000000000  0.00000000000000000000
16.00000000000000000000  1.00000000000000000000  0.00000000000000000000
17.00000000000000000000  1.00000000000000000000  0.00000000000000000000
17.00000000000000000000  0.00000000000000000000  0.00000000000000000000
18.00000000000000000000  0.00000000000000000000  0.00000000000000000000
17.00000000000000000000  1.00000000000000000000  0.00000000000000000000
18.00000000000000000000  1.00000000000000000000  0.00000000000000000000
18.00000000000000000000  0.00000000000000000000  0.00000000000000000000
19.00000000000000000000  0.00000000000000000000  0.00000000000000000000
18.00000000000000000000  1.00000000000000000000  0.00000000000000000000
19.00000000000000000000  1.00000000000000000000  0.00000000000000000000
19.00000000000000000000  0.00000000000000000000  0.00000000000000000000
20.00000000000000000000  0.00000000000000000000  0.00000000000000000000
19.00000000000000000000  1.00000000000000000000  0.00000000000000000000
20.00000000000000000000  1.00000000000000000000  0.00000000000000000000
0.00000000000000000000  1.00000000000000000000  0.00000000000000000000
1.00000000000000000000  1.00000000000000000000  0.00000000000000000000
0.00000000000000000000  2.00000000000000000000  0.00000000000000000000
1.00000000000000000000  2.00000000000000000000  0.00000000000000000000
1.00000000000000000000  1.00000000000000000000  0.00000000000000000000
2.00000000000000000000  1.00000000000000000000  0.00000000000000000000
1.00000000000000000000  2.00000000000000000000  0.00000000000000000000
2.00000000000000000000  2.00000000000000000000  0.00000000000000000000
2.00000000000000000000  1.00000000000000000000  0.00000000000000000000
3.00000000000000000000  1.00000000000000000000  0.00000000000000000000
2.00000000000000000000  2.00000000000000000000  0.00000000000000000000
3.00000000000000000000  2.00000000000000000000  0.00000000000000000000
3.00000000000000000000  1.00000000000000000000  0.00000000000000000000
4.00000000000000000000  1.00000000000000000000  0.00000000000000000000
3.00000000000000000000  2.00000000000000000000  0.00000000000000000000
4.00000000000000000000  2.00000000000000000000  0.00000000000000000000
4.00000000000000000000  1.00000000000000000000  0.00000000000000000000
5.00000000000000000000  1.00000000000000000000  0.00000000000000000000
4.00000000000000000000  2.00000000000000000000  0.00000000000000000000
5.00000000000000000000  2.00000000000000000000  0.00000000000000000000
5.00000000000000000000  1.00000000000000000000  0.00000000000000000000
6.00000000000000000000  1.00000000000000000000  0.00000000000000000000
5.00000000000000000000  2.00000000000000000000  0.00000000000000000000
6.00000000000000000000  2.00000000000000000000  0.00000000000000000000
6.00000000000000000000  1.00000000000000000000  0.00000000000000000000
7.00000000000000000000  1.00000000000000000000  0.00000000000000000000
6.00000000000000000000  2.00000000000000000000  0.00000000000000000000
7.00000000000000000000  2.00000000000000000000  0.00000000000000000000
7.00000000000000000000  1.00000000000000000000  0.00000000000000000000
8.00000000000000000000  1.00000000000000000000  0.00000000000000000000
7.00000000000000000000  2.00000000000000000000  0.00000000000000000000
8.00000000000000000000  2.00000000000000000000  0.00000000000000000000
8.00000000000000000000  1.00000000000000000000  0.00000000000000000000
9.00000000000000000000  1.00000000000000000000  0.00000000000000000000
8.00000000000000000000  2.00000000000000000000  0.00000000000000000000
9.00000000000000000000  2.00000000000000000000  0.00000000000000000000
9.00000000000000000000  1.00000000000000000000  0.00000000000000000000
10.00000000000000000000  1.00000000000000000000  0.00000000000000000000
9.00000000000000000000  2.00000000000000000000  0.00000000000000000000
10.00000000000000000000  2.00000000000000000000  0.00000000000000000000
10.00000000000000000000  1.00000000000000000000  0.00000000000000000000
11.00000000000000000000  1.00000000000000000000  0.00000000000000000000
10.00000000000000000000  2.00000000000000000000  0.00000000000000000000
11.00000000000000000000  2.00000000000000000000  0.00000000000000000000
11.00000000000000000000  1.00000000000000000000  0.00000000000000000000
12.00000000000000000000  1.00000000000000000000  0.00000000000000000000
11.00000000000000000000  2.00000000000000000000  0.00000000000000000000
12.00000000000000000000  2.00000000000000000000  0.00000000000000000000
12.00000000000000000000  1.00000000000000000000  0.00000000000000000000
13.00000000000000000000  1.00000000000000000000  0.00000000000000000000
12.00000000000000000000  2.00000000000000000000  0.00000000000000000000
13.00000000000000000000  2.00000000000000000000  0.00000000000000000000
13.00000000000000000000  1.00000000000000000000  0.00000000000000000000
14.00000000000000000000  1.00000000000000000000  0.00000000000000000000
13.00000000000000000000  2.00000000000000000000  0.00000000000000000000
14.00000000000000000000  2.00000000000000000000  0.00000000000000000000
14.00000000000000000000  1.00000000000000000000  0.00000000000000000000
15.00000000000000000000  1.00000000000000000000  0.00000000000000000000
14.00000000000000000000  2.00000000000000000000  0.00000000000000000000
15.00000000000000000000  2.00000000000000000000  0.00000000000000000000
15.00000000000000000000  1.00000000000000000000  0.00000000000000000000
16.00000000000000000000  1.00000000000000000000  0.00000000000000000000
15.00000000000000000000  2.00000000000000000000  0.00000000000000000000
16.00000000000000000000  2.00000000000000000000  0.00000000000000000000
16.00000000000000000000  1.00000000000000000000  0.00000000000000000000
17.00000000000000000000  1.00000000000000000000  0.00000000000000000000
16.00000000000000000000  2.00000000000000000000  0.00000000000000000000
17.00000000000000000000  2.00000000000000000000  0.00000000000000000000
17.00000000000000000000  1.00000000000000000000  0.00000000000000000000
18.00000000000000000000  1.00000000000000000000  0.00000000000000000000
17.00000000000000000000  2.00000000000000000000  0.00000000000000000000
18.00000000000000000000  2.00000000000000000000  0.00000000000000000000
18.00000000000000000000  1.00000000000000000000  0.00000000000000000000
19.00000000000000000000  1.00000000000000000000  0.00000000000000000000
18.00000000000000000000  2.00000000000000000000  0.00000000000000000000
19.00000000000000000000  2.00000000000000000000  0.00000000000000000000
19.00000000000000000000  1.00000000000000000000  0.00000000000000000000
20.00000000000000000000  1.00000000000000000000  0.00000000000000000000
19.00000000000000000000  2.00000000000000000000  0.00000000000000000000
20.00000000000000000000  2.00000000000000000000  0.00000000000000000000

CELLS 40 200
4 0 1 3 2 
4 4 5 7 6 
4 8 9 11 10 
4 12 13 15 14 
4 16 17 19 18 
4 20 21 23 22 
4 24 25 27 26 
4 28 29 31 30 
4 32 33 35 34 
4 36 37 39 38 
4 40 41 43 42 
4 44 45 47 46 
4 48 49 51 50 
4 52 53 55 54 
4 56 57 59 58 
4 60 61 63 62 
4 64 65 67 66 
4 68 69 71 70 
4 72 73 75 74 
4 76 77 79 78 
4 80 81 83 82 
4 84 85 87 86 
4 88 89 91 90 
4 92 93 95 94 
4 96 97 99 98 
4 100 101 103 102 
4 104 105 107 106 
4 108 109 111 110 
4 112 113 115 114 
4 116 117 119 118 
4 120 121 123 122 
4 124 125 127 126 
4 128 129 131 130 
4 132 133 135 134 
4 136 137 139 138 
4 140 141 143 142 
4 144 145 147 146 
4 148 149 151 150 
4 152 153 155 154 
4 156 157 159 158 

CELL_TYPES 40
9 9 9 9 9 9 9 9 9 9 9 9 
9 9 9 9 9 9 9 9 9 9 9 9 
9 9 9 9 9 9 9 9 9 9 9 9 
9 9 9 9 

POINT_DATA 160
SCALARS  H  double
LOOKUP_TABLE default
      7.568919281733 
      7.568415653838 
      7.568919281733 
      7.568415653838 
      7.568331519663 
      7.575713722092 
      7.568331519663 
      7.575713722092 
      7.575145986822 
      7.585537877719 
      7.575145986822 
      7.585537877719 
      7.584853232361 
      7.598193253977 
      7.584853232361 
      7.598193253977 
      7.597376362505 
      7.612185883902 
      7.597376362505 
      7.612185883902 
      7.611337255405 
      7.626215734962 
      7.611337255405 
      7.626215734962 
      7.625413631303 
      7.638888014605 
      7.625413631303 
      7.638888014605 
      7.638208962715 
      7.648935985480 
      7.638208962715 
      7.648935985480 
      7.648439890065 
      7.655366275651 
      7.648439890065 
      7.655366275651 
      7.655056027441 
      7.657465447762 
      7.655056027441 
      7.657465447762 
      7.657465447762 
      7.655056027441 
      7.657465447762 
      7.655056027441 
      7.655366275651 
      7.648439890065 
      7.655366275651 
      7.648439890065 
      7.648935985480 
      7.638208962715 
      7.648935985480 
      7.638208962715 
      7.638888014605 
      7.625413631303 
      7.638888014605 
      7.625413631303 
      7.626215734962 
      7.611337255405 
      7.626215734962 
      7.611337255405 
      7.612185883902 
      7.597376362505 
      7.612185883902 
      7.597376362505 
      7.598193253977 
      7.584853232361 
      7.598193253977 
      7.584853232361 
      7.585537877719 
      7.575145986822 
      7.585537877719 
      7.575145986822 
      7.575713722092 
      7.568331519663 
      7.575713722092 
      7.568331519663 
      7.568415653838 
      7.568919281733 
      7.568415653838 
      7.568919281733 
      7.568919281733 
      7.568415653838 
      7.568919281733 
      7.568415653838 
      7.568331519663 
      7.575713722092 
      7.568331519663 
      7.575713722092 
      7.575145986822 
      7.585537877719 
      7.575145986822 
      7.585537877719 
      7.584853232361 
      7.598193253977 
      7.584853232361 
      7.598193253977 
      7.597376362505 
      7.612185883902 
      7.597376362505 
      7.612185883902 
      7.611337255405 
      7.626215734962 
      7.611337255405 
      7.626215734962 
      7.625413631303 
      7.638888014605 
      7.625413631303 
      7.638888014605 
      7.638208962715 
      7.648935985480 
      7.638208962715 
      7.648935985480 
      7.648439890065 
      7.655366275651 
      7.648439890065 
      7.655366275651 
      7.655056027441 
      7.657465447762 
      7.655056027441 
      7.657465447762 
      7.657465447762 
      7.655056027441 
      7.657465447762 
      7.655056027441 
      7.655366275651 
      7.648439890065 
      7.655366275651 
      7.648439890065 
      7.648935985480 
      7.638208962715 
      7.648935985480 
      7.638208962715 
      7.638888014605 
      7.625413631303 
      7.638888014605 
      7.625413631303 
      7.626215734962 
      7.611337255405 
      7.626215734962 
      7.611337255405 
      7.612185883902 
      7.597376362505 
      7.612185883902 
      7.597376362505 
      7.598193253977 
      7.584853232361 
      7.598193253977 
      7.584853232361 
      7.585537877719 
      7.575145986822 
      7.585537877719 
      7.575145986822 
      7.575713722092 
      7.568331519663 
      7.575713722092 
      7.568331519663 
      7.568415653838 
      7.568919281733 
      7.568415653838 
      7.568919281733 
SCALARS  HU  double
LOOKUP_TABLE default
     -0.001951037830 
     -0.147392945229 
     -0.001951037830 
     -0.147392945229 
     -0.153062550705 
     -0.289279926830 
     -0.153062550705 
     -0.289279926830 
     -0.292198095373 
     -0.398579266134 
     -0.292198095373 
     -0.398579266134 
     -0.401064242930 
     -0.469247009226 
     -0.401064242930 
     -0.469247009226 
     -0.470322794304 
     -0.493397242966 
     -0.470322794304 
     -0.493397242966 
     -0.493140877360 
     -0.469220703995 
     -0.493140877360 
     -0.469220703995 
     -0.467635910120 
     -0.399282545436 
     -0.467635910120 
     -0.399282545436 
     -0.396549752380 
     -0.290601111007 
     -0.396549752380 
     -0.290601111007 
     -0.287038301890 
     -0.153775090523 
     -0.287038301890 
     -0.153775090523 
     -0.150121528485 
     -0.001715756681 
     -0.150121528485 
     -0.001715756681 
      0.001715756681 
      0.150121528485 
      0.001715756681 
      0.150121528485 
      0.153775090523 
      0.287038301890 
      0.153775090523 
      0.287038301890 
      0.290601111007 
      0.396549752380 
      0.290601111007 
      0.396549752380 
      0.399282545436 
      0.467635910120 
      0.399282545436 
      0.467635910120 
      0.469220703995 
      0.493140877360 
      0.469220703995 
      0.493140877360 
      0.493397242966 
      0.470322794304 
      0.493397242966 
      0.470322794304 
      0.469247009226 
      0.401064242930 
      0.469247009226 
      0.401064242930 
      0.398579266134 
      0.292198095373 
      0.398579266134 
      0.292198095373 
      0.289279926830 
      0.153062550705 
      0.289279926830 
      0.153062550705 
      0.147392945229 
      0.001951037830 
      0.147392945229 
      0.001951037830 
     -0.001951037830 
     -0.147392945229 
     -0.001951037830 
     -0.147392945229 
     -0.153062550705 
     -0.289279926830 
     -0.153062550705 
     -0.289279926830 
     -0.292198095373 
     -0.398579266134 
     -0.292198095373 
     -0.398579266134 
     -0.401064242930 
     -0.469247009226 
     -0.401064242930 
     -0.469247009226 
     -0.470322794304 
     -0.493397242966 
     -0.470322794304 
     -0.493397242966 
     -0.493140877360 
     -0.469220703995 
     -0.493140877360 
     -0.469220703995 
     -0.467635910120 
     -0.399282545436 
     -0.467635910120 
     -0.399282545436 
     -0.396549752380 
     -0.290601111007 
     -0.396549752380 
     -0.290601111007 
     -0.287038301890 
     -0.153775090523 
     -0.287038301890 
     -0.153775090523 
     -0.150121528485 
     -0.001715756681 
     -0.150121528485 
     -0.001715756681 
      0.001715756681 
      0.150121528485 
      0.001715756681 
      0.150121528485 
      0.153775090523 
      0.287038301890 
      0.153775090523 
      0.287038301890 
      0.290601111007 
      0.396549752380 
      0.290601111007 
      0.396549752380 
      0.399282545436 
      0.467635910120 
      0.399282545436 
      0.467635910120 
      0.469220703995 
      0.493140877360 
      0.469220703995 
      0.493140877360 
      0.493397242966 
      0.470322794304 
      0.493397242966 
      0.470322794304 
      0.469247009226 
      0.401064242930 
      0.469247009226 
      0.401064242930 
      0.398579266134 
      0.292198095373 
      0.398579266134 
      0.292198095373 
      0.289279926830 
      0.153062550705 
      0.289279926830 
      0.153062550705 
      0.147392945229 
      0.001951037830 
      0.147392945229 
      0.001951037830 
SCALARS  HV  double
LOOKUP_TABLE default
      0.000000000000 
      0.000000000000 
     -0.000000000000 
      0.000000000000 
      0.000000000000 
      0.000000000000 
      0.000000000000 
     -0.000000000000 
     -0.000000000000 
      0.000000000000 
     -0.000000000000 
     -0.000000000000 
      0.000000000000 
     -0.000000000000 
     -0.000000000000 
      0.000000000000 
     -0.000000000000 
      0.000000000000 
      0.000000000000 
      0.000000000000 
      0.000000000000 
      0.000000000000 
      0.000000000000 
     -0.000000000000 
      0.000000000000 
     -0.000000000000 
     -0.000000000000 
     -0.000000000000 
     -0.000000000000 
     -0.000000000000 
     -0.000000000000 
     -0.000000000000 
     -0.000000000000 
     -0.000000000000 
     -0.000000000000 
     -0.000000000000 
     -0.000000000000 
     -0.000000000000 
     -0.000000000000 
     -0.000000000000 
     -0.000000000000 
     -0.000000000000 
     -0.000000000000 
     -0.000000000000 
     -0.000000000000 
      0.000000000000 
     -0.000000000000 
     -0.000000000000 
      0.000000000000 
      0.000000000000 
      0.000000000000 
     -0.000000000000 
      0.000000000000 
      0.000000000000 
     -0.000000000000 
     -0.000000000000 
      0.000000000000 
     -0.000000000000 
     -0.000000000000 
      0.000000000000 
      0.000000000000 
     -0.000000000000 
      0.000000000000 
     -0.000000000000 
      0.000000000000 
      0.000000000000 
     -0.000000000000 
     -0.000000000000 
      0.000000000000 
     -0.000000000000 
     -0.000000000000 
     -0.000000000000 
     -0.000000000000 
     -0.000000000000 
      0.000000000000 
     -0.000000000000 
      0.000000000000 
     -0.000000000000 
     -0.000000000000 
      0.000000000000 
      0.000000000000 
      0.000000000000 
      0.000000000000 
      0.000000000000 
     -0.000000000000 
      0.000000000000 
      0.000000000000 
     -0.000000000000 
      0.000000000000 
     -0.000000000000 
     -0.000000000000 
      0.000000000000 
     -0.000000000000 
     -0.000000000000 
     -0.000000000000 
      0.000000000000 
     -0.000000000000 
     -0.000000000000 
      0.000000000000 
      0.000000000000 
      0.000000000000 
      0.000000000000 
      0.000000000000 
     -0.000000000000 
      0.000000000000 
      0.000000000000 
     -0.000000000000 
     -0.000000000000 
     -0.000000000000 
     -0.000000000000 
     -0.000000000000 
     -0.000000000000 
      0.000000000000 
     -0.000000000000 
     -0.000000000000 
     -0.000000000000 
     -0.000000000000 
      0.000000000000 
     -0.000000000000 
      0.000000000000 
     -0.000000000000 
     -0.000000000000 
      0.000000000000 
     -0.000000000000 
      0.000000000000 
      0.000000000000 
     -0.000000000000 
     -0.000000000000 
     -0.000000000000 
      0.000000000000 
     -0.000000000000 
      0.000000000000 
      0.000000000000 
     -0.000000000000 
      0.000000000000 
     -0.000000000000 
      0.000000000000 
     -0.000000000000 
     -0.000000000000 
     -0.000000000000 
     -0.000000000000 
     -0.000000000000 
     -0.000000000000 
     -0.000000000000 
     -0.000000000000 
      0.000000000000 
     -0.000000000000 
     -0.000000000000 
      0.000000000000 
      0.000000000000 
     -0.000000000000 
      0.000000000000 
     -0.000000000000 
      0.000000000000 
     -0.000000000000 
     -0.000000000000 
      0.000000000000 
      0.000000000000 
     -0.000000000000 
     -0.000000000000 
SCALARS  HW  double
LOOKUP_TABLE default
      0.556187354910 
      0.576597353948 
      0.556187354910 
      0.576597353948 
      0.568873837803 
      0.477683741785 
      0.568873837803 
      0.477683741785 
      0.472150631044 
      0.347160778850 
      0.472150631044 
      0.347160778850 
      0.341765036209 
      0.179024542002 
      0.341765036209 
      0.179024542002 
      0.175399164664 
     -0.005175304515 
      0.175399164664 
     -0.005175304515 
     -0.006770029382 
     -0.188257197961 
     -0.006770029382 
     -0.188257197961 
     -0.187772144199 
     -0.352225101731 
     -0.187772144199 
     -0.352225101731 
     -0.350080176531 
     -0.481388013172 
     -0.350080176531 
     -0.481388013172 
     -0.478251254412 
     -0.564322993032 
     -0.478251254412 
     -0.564322993032 
     -0.560921858002 
     -0.591555875615 
     -0.560921858002 
     -0.591555875615 
     -0.591555875615 
     -0.560921858002 
     -0.591555875615 
     -0.560921858002 
     -0.564322993032 
     -0.478251254412 
     -0.564322993032 
     -0.478251254412 
     -0.481388013172 
     -0.350080176531 
     -0.481388013172 
     -0.350080176531 
     -0.352225101731 
     -0.187772144199 
     -0.352225101731 
     -0.187772144199 
     -0.188257197961 
     -0.006770029382 
     -0.188257197961 
     -0.006770029382 
     -0.005175304515 
      0.175399164664 
     -0.005175304515 
      0.175399164664 
      0.179024542002 
      0.341765036209 
      0.179024542002 
      0.341765036209 
      0.347160778850 
      0.472150631044 
      0.347160778850 
      0.472150631044 
      0.477683741785 
      0.568873837803 
      0.477683741785 
      0.568873837803 
      0.576597353948 
      0.556187354910 
      0.576597353948 
      0.556187354910 
      0.556187354910 
      0.576597353948 
      0.556187354910 
      0.576597353948 
      0.568873837803 
      0.477683741785 
      0.568873837803 
      0.477683741785 
      0.472150631044 
      0.347160778850 
      0.472150631044 
      0.347160778850 
      0.341765036209 
      0.179024542002 
      0.341765036209 
      0.179024542002 
      0.175399164664 
     -0.005175304515 
      0.175399164664 
     -0.005175304515 
     -0.006770029382 
     -0.188257197961 
     -0.006770029382 
     -0.188257197961 
     -0.187772144199 
     -0.352225101731 
     -0.187772144199 
     -0.352225101731 
     -0.350080176531 
     -0.481388013172 
     -0.350080176531 
     -0.481388013172 
     -0.478251254412 
     -0.564322993032 
     -0.478251254412 
     -0.564322993032 
     -0.560921858002 
     -0.591555875615 
     -0.560921858002 
     -0.591555875615 
     -0.591555875615 
     -0.560921858002 
     -0.591555875615 
     -0.560921858002 
     -0.564322993032 
     -0.478251254412 
     -0.564322993032 
     -0.478251254412 
     -0.481388013172 
     -0.350080176531 
     -0.481388013172 
     -0.350080176531 
     -0.352225101731 
     -0.187772144199 
     -0.352225101731 
     -0.187772144199 
     -0.188257197961 
     -0.006770029382 
     -0.188257197961 
     -0.006770029382 
     -0.005175304515 
      0.175399164664 
     -0.005175304515 
      0.175399164664 
      0.179024542002 
      0.341765036209 
      0.179024542002 
      0.341765036209 
      0.347160778850 
      0.472150631044 
      0.347160778850 
      0.472150631044 
      0.477683741785 
      0.568873837803 
      0.477683741785 
      0.568873837803 
      0.576597353948 
      0.556187354910 
      0.576597353948 
      0.556187354910 
SCALARS  q  double
LOOKUP_TABLE default
      0.245763596854 
      0.260321583188 
      0.245763596854 
      0.260321583188 
      0.256608225661 
      0.217119930423 
      0.256608225661 
      0.217119930423 
      0.214154976796 
      0.160886062071 
      0.214154976796 
      0.160886062071 
      0.157564089467 
      0.087827636695 
      0.157564089467 
      0.087827636695 
      0.084777602950 
      0.006914189419 
      0.084777602950 
      0.006914189419 
      0.004374441185 
     -0.074371003031 
      0.004374441185 
     -0.074371003031 
     -0.076139269271 
     -0.147977266515 
     -0.076139269271 
     -0.147977266515 
     -0.148806832538 
     -0.206610149422 
     -0.148806832538 
     -0.206610149422 
     -0.206448189412 
     -0.244611958560 
     -0.206448189412 
     -0.244611958560 
     -0.243598025990 
     -0.257230879750 
     -0.243598025990 
     -0.257230879750 
     -0.257230879750 
     -0.243598025990 
     -0.257230879750 
     -0.243598025990 
     -0.244611958560 
     -0.206448189412 
     -0.244611958560 
     -0.206448189412 
     -0.206610149422 
     -0.148806832538 
     -0.206610149422 
     -0.148806832538 
     -0.147977266515 
     -0.076139269271 
     -0.147977266515 
     -0.076139269271 
     -0.074371003031 
      0.004374441185 
     -0.074371003031 
      0.004374441185 
      0.006914189419 
      0.084777602950 
      0.006914189419 
      0.084777602950 
      0.087827636695 
      0.157564089467 
      0.087827636695 
      0.157564089467 
      0.160886062071 
      0.214154976796 
      0.160886062070 
      0.214154976796 
      0.217119930423 
      0.256608225661 
      0.217119930423 
      0.256608225661 
      0.260321583188 
      0.245763596854 
      0.260321583188 
      0.245763596854 
      0.245763596854 
      0.260321583188 
      0.245763596854 
      0.260321583188 
      0.256608225661 
      0.217119930423 
      0.256608225661 
      0.217119930423 
      0.214154976796 
      0.160886062071 
      0.214154976796 
      0.160886062071 
      0.157564089467 
      0.087827636695 
      0.157564089467 
      0.087827636695 
      0.084777602950 
      0.006914189419 
      0.084777602950 
      0.006914189419 
      0.004374441185 
     -0.074371003031 
      0.004374441185 
     -0.074371003031 
     -0.076139269271 
     -0.147977266515 
     -0.076139269271 
     -0.147977266515 
     -0.148806832538 
     -0.206610149422 
     -0.148806832538 
     -0.206610149422 
     -0.206448189412 
     -0.244611958560 
     -0.206448189412 
     -0.244611958560 
     -0.243598025990 
     -0.257230879750 
     -0.243598025990 
     -0.257230879750 
     -0.257230879750 
     -0.243598025990 
     -0.257230879750 
     -0.243598025990 
     -0.244611958560 
     -0.206448189412 
     -0.244611958560 
     -0.206448189412 
     -0.206610149422 
     -0.148806832538 
     -0.206610149422 
     -0.148806832538 
     -0.147977266515 
     -0.076139269271 
     -0.147977266515 
     -0.076139269271 
     -0.074371003031 
      0.004374441185 
     -0.074371003031 
      0.004374441185 
      0.006914189419 
      0.084777602950 
      0.006914189419 
      0.084777602950 
      0.087827636695 
      0.157564089467 
      0.087827636695 
      0.157564089467 
      0.160886062070 
      0.214154976796 
      0.160886062070 
      0.214154976796 
      0.217119930423 