# vtk DataFile Version 2.0
NDG-FEM NonhydrostaticStandingWave2d Simulation
ASCII
DATASET UNSTRUCTURED_GRID

POINTS 405 double
0.00000000000000000000  0.00000000000000000000  0.00000000000000000000
1.00000000000000000000  0.00000000000000000000  0.00000000000000000000
2.00000000000000000000  0.00000000000000000000  0.00000000000000000000
0.00000000000000000000  1.00000000000000000000  0.00000000000000000000
1.00000000000000000000  1.00000000000000000000  0.00000000000000000000
2.00000000000000000000  1.00000000000000000000  0.00000000000000000000
0.00000000000000000000  2.00000000000000000000  0.00000000000000000000
1.00000000000000000000  2.00000000000000000000  0.00000000000000000000
2.00000000000000000000  2.00000000000000000000  0.00000000000000000000
2.00000000000000000000  0.00000000000000000000  0.00000000000000000000
3.00000000000000000000  0.00000000000000000000  0.00000000000000000000
4.00000000000000000000  0.00000000000000000000  0.00000000000000000000
2.00000000000000000000  1.00000000000000000000  0.00000000000000000000
3.00000000000000000000  1.00000000000000000000  0.00000000000000000000
4.00000000000000000000  1.00000000000000000000  0.00000000000000000000
2.00000000000000000000  2.00000000000000000000  0.00000000000000000000
3.00000000000000000000  2.00000000000000000000  0.00000000000000000000
4.00000000000000000000  2.00000000000000000000  0.00000000000000000000
4.00000000000000000000  0.00000000000000000000  0.00000000000000000000
5.00000000000000000000  0.00000000000000000000  0.00000000000000000000
6.00000000000000000000  0.00000000000000000000  0.00000000000000000000
4.00000000000000000000  1.00000000000000000000  0.00000000000000000000
5.00000000000000000000  1.00000000000000000000  0.00000000000000000000
6.00000000000000000000  1.00000000000000000000  0.00000000000000000000
4.00000000000000000000  2.00000000000000000000  0.00000000000000000000
5.00000000000000000000  2.00000000000000000000  0.00000000000000000000
6.00000000000000000000  2.00000000000000000000  0.00000000000000000000
6.00000000000000000000  0.00000000000000000000  0.00000000000000000000
7.00000000000000000000  0.00000000000000000000  0.00000000000000000000
8.00000000000000000000  0.00000000000000000000  0.00000000000000000000
6.00000000000000000000  1.00000000000000000000  0.00000000000000000000
7.00000000000000000000  1.00000000000000000000  0.00000000000000000000
8.00000000000000000000  1.00000000000000000000  0.00000000000000000000
6.00000000000000000000  2.00000000000000000000  0.00000000000000000000
7.00000000000000000000  2.00000000000000000000  0.00000000000000000000
8.00000000000000000000  2.00000000000000000000  0.00000000000000000000
8.00000000000000000000  0.00000000000000000000  0.00000000000000000000
9.00000000000000000000  0.00000000000000000000  0.00000000000000000000
10.00000000000000000000  0.00000000000000000000  0.00000000000000000000
8.00000000000000000000  1.00000000000000000000  0.00000000000000000000
9.00000000000000000000  1.00000000000000000000  0.00000000000000000000
10.00000000000000000000  1.00000000000000000000  0.00000000000000000000
8.00000000000000000000  2.00000000000000000000  0.00000000000000000000
9.00000000000000000000  2.00000000000000000000  0.00000000000000000000
10.00000000000000000000  2.00000000000000000000  0.00000000000000000000
10.00000000000000000000  0.00000000000000000000  0.00000000000000000000
11.00000000000000000000  0.00000000000000000000  0.00000000000000000000
12.00000000000000000000  0.00000000000000000000  0.00000000000000000000
10.00000000000000000000  1.00000000000000000000  0.00000000000000000000
11.00000000000000000000  1.00000000000000000000  0.00000000000000000000
12.00000000000000000000  1.00000000000000000000  0.00000000000000000000
10.00000000000000000000  2.00000000000000000000  0.00000000000000000000
11.00000000000000000000  2.00000000000000000000  0.00000000000000000000
12.00000000000000000000  2.00000000000000000000  0.00000000000000000000
12.00000000000000000000  0.00000000000000000000  0.00000000000000000000
13.00000000000000000000  0.00000000000000000000  0.00000000000000000000
14.00000000000000000000  0.00000000000000000000  0.00000000000000000000
12.00000000000000000000  1.00000000000000000000  0.00000000000000000000
13.00000000000000000000  1.00000000000000000000  0.00000000000000000000
14.00000000000000000000  1.00000000000000000000  0.00000000000000000000
12.00000000000000000000  2.00000000000000000000  0.00000000000000000000
13.00000000000000000000  2.00000000000000000000  0.00000000000000000000
14.00000000000000000000  2.00000000000000000000  0.00000000000000000000
14.00000000000000000000  0.00000000000000000000  0.00000000000000000000
15.00000000000000000000  0.00000000000000000000  0.00000000000000000000
16.00000000000000000000  0.00000000000000000000  0.00000000000000000000
14.00000000000000000000  1.00000000000000000000  0.00000000000000000000
15.00000000000000000000  1.00000000000000000000  0.00000000000000000000
16.00000000000000000000  1.00000000000000000000  0.00000000000000000000
14.00000000000000000000  2.00000000000000000000  0.00000000000000000000
15.00000000000000000000  2.00000000000000000000  0.00000000000000000000
16.00000000000000000000  2.00000000000000000000  0.00000000000000000000
16.00000000000000000000  0.00000000000000000000  0.00000000000000000000
17.00000000000000000000  0.00000000000000000000  0.00000000000000000000
18.00000000000000000000  0.00000000000000000000  0.00000000000000000000
16.00000000000000000000  1.00000000000000000000  0.00000000000000000000
17.00000000000000000000  1.00000000000000000000  0.00000000000000000000
18.00000000000000000000  1.00000000000000000000  0.00000000000000000000
16.00000000000000000000  2.00000000000000000000  0.00000000000000000000
17.00000000000000000000  2.00000000000000000000  0.00000000000000000000
18.00000000000000000000  2.00000000000000000000  0.00000000000000000000
18.00000000000000000000  0.00000000000000000000  0.00000000000000000000
19.00000000000000000000  0.00000000000000000000  0.00000000000000000000
20.00000000000000000000  0.00000000000000000000  0.00000000000000000000
18.00000000000000000000  1.00000000000000000000  0.00000000000000000000
19.00000000000000000000  1.00000000000000000000  0.00000000000000000000
20.00000000000000000000  1.00000000000000000000  0.00000000000000000000
18.00000000000000000000  2.00000000000000000000  0.00000000000000000000
19.00000000000000000000  2.00000000000000000000  0.00000000000000000000
20.00000000000000000000  2.00000000000000000000  0.00000000000000000000
20.00000000000000000000  0.00000000000000000000  0.00000000000000000000
21.00000000000000000000  0.00000000000000000000  0.00000000000000000000
22.00000000000000000000  0.00000000000000000000  0.00000000000000000000
20.00000000000000000000  1.00000000000000000000  0.00000000000000000000
21.00000000000000000000  1.00000000000000000000  0.00000000000000000000
22.00000000000000000000  1.00000000000000000000  0.00000000000000000000
20.00000000000000000000  2.00000000000000000000  0.00000000000000000000
21.00000000000000000000  2.00000000000000000000  0.00000000000000000000
22.00000000000000000000  2.00000000000000000000  0.00000000000000000000
22.00000000000000000000  0.00000000000000000000  0.00000000000000000000
23.00000000000000000000  0.00000000000000000000  0.00000000000000000000
24.00000000000000000000  0.00000000000000000000  0.00000000000000000000
22.00000000000000000000  1.00000000000000000000  0.00000000000000000000
23.00000000000000000000  1.00000000000000000000  0.00000000000000000000
24.00000000000000000000  1.00000000000000000000  0.00000000000000000000
22.00000000000000000000  2.00000000000000000000  0.00000000000000000000
23.00000000000000000000  2.00000000000000000000  0.00000000000000000000
24.00000000000000000000  2.00000000000000000000  0.00000000000000000000
24.00000000000000000000  0.00000000000000000000  0.00000000000000000000
25.00000000000000000000  0.00000000000000000000  0.00000000000000000000
26.00000000000000000000  0.00000000000000000000  0.00000000000000000000
24.00000000000000000000  1.00000000000000000000  0.00000000000000000000
25.00000000000000000000  1.00000000000000000000  0.00000000000000000000
26.00000000000000000000  1.00000000000000000000  0.00000000000000000000
24.00000000000000000000  2.00000000000000000000  0.00000000000000000000
25.00000000000000000000  2.00000000000000000000  0.00000000000000000000
26.00000000000000000000  2.00000000000000000000  0.00000000000000000000
26.00000000000000000000  0.00000000000000000000  0.00000000000000000000
27.00000000000000000000  0.00000000000000000000  0.00000000000000000000
28.00000000000000000000  0.00000000000000000000  0.00000000000000000000
26.00000000000000000000  1.00000000000000000000  0.00000000000000000000
27.00000000000000000000  1.00000000000000000000  0.00000000000000000000
28.00000000000000000000  1.00000000000000000000  0.00000000000000000000
26.00000000000000000000  2.00000000000000000000  0.00000000000000000000
27.00000000000000000000  2.00000000000000000000  0.00000000000000000000
28.00000000000000000000  2.00000000000000000000  0.00000000000000000000
28.00000000000000000000  0.00000000000000000000  0.00000000000000000000
29.00000000000000000000  0.00000000000000000000  0.00000000000000000000
30.00000000000000000000  0.00000000000000000000  0.00000000000000000000
28.00000000000000000000  1.00000000000000000000  0.00000000000000000000
29.00000000000000000000  1.00000000000000000000  0.00000000000000000000
30.00000000000000000000  1.00000000000000000000  0.00000000000000000000
28.00000000000000000000  2.00000000000000000000  0.00000000000000000000
29.00000000000000000000  2.00000000000000000000  0.00000000000000000000
30.00000000000000000000  2.00000000000000000000  0.00000000000000000000
0.00000000000000000000  2.00000000000000000000  0.00000000000000000000
1.00000000000000000000  2.00000000000000000000  0.00000000000000000000
[...]
POINT_DATA 405
SCALARS  H  double
LOOKUP_TABLE default
      7.604509105124 
      7.604684965141 
      7.605852006414 
      7.604537596156 
      7.604682078754 
      7.605856366931 
      7.604430907914 
      7.604713543000 
      7.605858672167 
      7.605818782821 
      7.607340759341 
      7.609596324254 
      7.605846721086 
      7.607337154900 
      7.609591509489 
      7.605834882489 
      7.607330085683 
      7.609597391145 
      7.609406894152 
      7.611798289382 
      7.614229932242 
      7.609412693063 
      7.611799166869 
      7.614227290900 
      7.609413650729 
      7.611798944848 
      7.614227651329 
      7.614065398208 
      7.616527607540 
      7.618202408078 
      7.614065191450 
      7.616528061615 
      7.618201662170 
      7.614064852988 
      7.616528158936 
      7.618201831586 
      7.618114204760 
      7.619592704689 
      7.619738774587 
      7.618113888448 
      7.619592810349 
      7.619738650371 
      7.618113685321 
      7.619592779117 
      7.619738778795 
      7.619739075652 
      7.619593167211 
      7.618112250459 
      7.619738990644 
      7.619593184059 
      7.618112237769 
      7.619739002512 
      7.619593153046 
      7.618112285558 
      7.618200127061 
      7.616529178111 
      7.614070264064 
      7.618200119629 
      7.616529179483 
      7.614070263327 
      7.618200140448 
      7.616529170089 
      7.614070274681 
      7.614230346551 
      7.611789346692 
      7.609399471667 
      7.614230347587 
      7.611789345760 
      7.609399472730 
      7.614230355860 
      7.611789343695 
      7.609399473389 
      7.609584163909 
      7.607341077438 
      7.605915389250 
      7.609584169661 
      7.607341074625 
      7.605915389877 
      7.609584173829 
      7.607341073508 
      7.605915376509 
      7.606042761324 
      7.604748304442 
      7.604702123215 
      7.606042778646 
      7.604748294070 
      7.604702066917 
      7.606042783556 
      7.604748300438 
      7.604701970669 
      7.604702379480 
      7.604748486049 
      7.606041736086 
      7.604702373170 
      7.604748535545 
      7.606041237094 
      7.604702328740 
      7.604748616659 
      7.606040751719 
      7.605915167872 
      7.607341326043 
      7.609587931506 
      7.605914702701 
      7.607341721862 
      7.609586511772 
      7.605914195333 
      7.607342290338 
      7.609585527215 
      7.609405097746 
      7.611779122871 
      7.614193018815 
      7.609402626681 
      7.611780597633 
      7.614196410254 
      7.609400709481 
      7.611781432958 
      7.614201183422 
      7.614044421470 
      7.616565529671 
      7.618248593936 
      7.614043539468 
      7.616560852402 
      7.618262227936 
      7.614043987535 
      7.616555647015 
      7.618270811484 
      7.618287174389 
      7.619600736182 
      7.620148378779 
      7.618255182949 
      7.619615089806 
      7.620023196675 
      7.618271389578 
      7.619618202447 
      7.619999872982 
      7.604329526159 
      7.604731571067 
      7.605821732495 
      7.604510415392 
      7.604701218929 
      7.605913108517 
      7.604563901643 
      7.604693128269 
      7.605928757789 
      7.605831337236 
      7.607331115356 
      7.609596802233 
      7.605858594381 
      7.607316573913 
      7.609608886213 
      7.605870791344 
      7.607315539238 
      7.609603561369 
      7.609413407182 
      7.611798852984 
      7.614227845426 
      7.609428437956 
      7.611796641891 
      7.614228493922 
      7.609430774172 
      7.611798288599 
      7.614224921142 
      7.614064904554 
      7.616528090542 
      7.618201898350 
      7.614067450297 
      7.616528125525 
      7.618201636451 
      7.614066105722 
      7.616528867897 
      7.618200691681 
      7.618113731368 
      7.619592767984 
      7.619738787743 
      7.618113942538 
      7.619592808205 
      7.619738708284 
      7.618113301461 
      7.619592955668 
      7.619738566121 
      7.619739007317 
      7.619593153614 
      7.618112285551 
      7.619739023790 
      7.619593160707 
      7.618112266887 
      7.619738890012 
      7.619593177152 
      7.618112252745 
      7.618200141920 
      7.616529170499 
      7.614070274395 
      7.618200145345 
      7.616529172659 
      7.614070269201 
      7.618200124811 
      7.616529174449 
      7.614070266277 
      7.614230355490 
      7.611789343856 
      7.609399474021 
      7.614230355490 
      7.611789344473 
      7.609399474926 
      7.614230351218 
      7.611789346135 
      7.609399465741 
      7.609584173392 
      7.607341073393 
      7.605915382729 
      7.609584174079 
      7.607341071843 
      7.605915392494 
      7.609584164546 
      7.607341080547 
      7.605915352847 
      7.606042784449 
      7.604748295654 
      7.604701997076 
      7.606042794977 
      7.604748285933 
      7.604702027246 
      7.606042737886 
      7.604748331884 
      7.604701900103 
      7.604702351548 
      7.604748592644 
      7.606040847931 
      7.604702407330 
      7.604748555945 
      7.606040903757 
      7.604702130992 
      7.604748739756 
      7.606040816436 
      7.605914323038 
      7.607342156332 
      7.609585609339 
      7.605914554492 
      7.607342042169 
      7.609585735045 
      7.605913662490 
      7.607342378115 
      7.609587988131 
      7.609400964260 
      7.611781343376 
      7.614199409870 
      7.609402055145 
      7.611780663289 
      7.614199336233 
      7.609401456762 
      7.611778852321 
      7.614213795944 
      7.614043370946 
      7.616557638582 
      7.618263745124 
      7.614048269889 
      7.616556116183 
      7.618243306337 
      7.614059299973 
      7.616544704628 
      7.618259217962 
      7.618276172082 
      7.619616152401 
      7.620016785638 
      7.618252024386 
      7.619649634569 
      7.619923184059 
      7.618272459615 
      7.619658976168 
      7.619936703976 
      7.604397434677 
      7.604728830703 
      7.605869563273 
      7.604405836170 
      7.604716352628 
      7.605877719307 
      7.604400394275 
      7.604737384482 
      7.605824037306 
      7.605859983714 
      7.607315940133 
      7.609602955955 
      7.605854621249 
      7.607316549914 
      7.609608882143 
      7.605845293083 
      7.607324361317 
      7.609595464425 
      7.609428983819 
      7.611798221725 
      7.614225262353 
      7.609429883391 
      7.611797011595 
      7.614227278144 
      7.609424454002 
      7.611798650662 
      7.614224405608 
      7.614065758726 
      7.616528819985 
      7.618200784149 
      7.614066951579 
      7.616528525781 
      7.618201062785 
      7.614065616629 
      7.616528735096 
      7.618200483080 
      7.618113280258 
      7.619592931774 
      7.619738606864 
      7.618113624372 
      7.619592924201 
      7.619738536414 
      7.618113372145 
      7.619592994666 
      7.619738441018 
      7.619738902988 
      7.619593171466 
      7.618112260551 
      7.619738914293 
      7.619593194012 
      7.618112221596 
      7.619738844222 
      7.619593210998 
      7.618112203663 
      7.618200129420 
      7.616529172844 
      7.614070268260 
      7.618200111115 
      7.616529181988 
      7.614070256562 
      7.618200089708 
      7.616529183531 
      7.614070256611 
      7.614230352433 
      7.611789345685 
      7.609399466092 
      7.614230343533 
      7.611789348603 
      7.609399464338 
      7.614230337464 
      7.611789349451 
      7.609399461180 
      7.609584165450 
      7.607341080032 
      7.605915350458 
      7.609584158694 
      7.607341082272 
      7.605915367992 
      7.609584150676 
      7.607341086892 
      7.605915348070 
      7.606042739839 
      7.604748331047 
      7.604701883279 
      7.606042734196 
      7.604748325311 
      7.604702011854 
      7.606042698610 
      7.604748344627 
      7.604701941628 
      7.604702121744 
      7.604748753806 
      7.606040748695 
      7.604702181047 
      7.604748659453 
      7.606041339377 
      7.604702035378 
      7.604748750365 
      7.606041246127 
      7.605913609769 
      7.607342443196 
      7.609587673681 
      7.605914021339 
      7.607341982524 
      7.609590327719 
      7.605913774956 
      7.607342121668 
      7.609589517033 
      7.609401034092 
      7.611779213106 
      7.614213503603 
      7.609403648776 
      7.611776734072 
      7.614219591832 
      7.609402982838 
      7.611776891384 
      7.614215159356 
      7.614057483828 
      7.616544999629 
      7.618258063892 
      7.614066669445 
      7.616541827663 
      7.618255387802 
      7.614063858181 
      7.616547183028 
      7.618225406968 
      7.618310599330 
      7.619640255109 
      7.620007822780 
      7.618293692269 
      7.619650658444 
      7.619930256372 
      7.618274591897 
      7.619671524318 
      7.619936218061 
SCALARS  HU  double
LOOKUP_TABLE default
      0.001674379153 
     -0.271006982200 
     -0.513737541957 
      0.001721786795 
     -0.271107303420 
     -0.513711497261 
      0.001327487541 
     -0.271047127478 
     -0.513425091148 
     -0.512051056570 
     -0.702212874159 
     -0.823572156652 
     -0.511839241819 
     -0.702249235049 
     -0.823591912181 
     -0.511947353477 
     -0.702315112797 
     -0.823542662934 
     -0.822682834122 
     -0.860601528722 
     -0.815326900988 
     -0.822626580782 
     -0.860597413984 
     -0.815341506205 
     -0.822613695602 
     -0.860600205783 
     -0.815339161718 
     -0.816401317015 
     -0.690565244013 
     -0.499341058622 
     -0.816397981117 
     -0.690562626048 
     -0.499345086423 
     -0.816401808444 
     -0.690561520430 
     -0.499344341455 
     -0.501889487478 
     -0.262444449182 
      0.001551342215 
     -0.501890839584 
     -0.262443856746 
      0.001550696578 
     -0.501893124200 
     -0.262443933352 
      0.001551531915 
     -0.001550069802 
      0.262441678791 
      0.501902238452 
     -0.001550452837 
      0.262441720522 
      0.501902199156 
     -0.001550607466 
      0.262441535159 
      0.501902532424 
      0.499355843733 
      0.690557009943 
      0.816354312571 
      0.499355808920 
      0.690557010800 
      0.816354313861 
      0.499355936171 
      0.690556945867 
      0.816354396325 
      0.815312668856 
      0.860677131834 
      0.822745144037 
      0.815312658512 
      0.860677137159 
      0.822745150155 
      0.815312710213 
      0.860677125382 
      0.822745170974 
      0.823666246326 
      0.702215472599 
      0.511260131379 
      0.823666205481 
      0.702215484825 
      0.511260186519 
      0.823666196623 
      0.702215493596 
      0.511260277467 
      0.513851249923 
      0.269651871860 
     -0.001626878620 
      0.513851110812 
      0.269651925565 
     -0.001626416802 
      0.513851064460 
      0.269651892210 
     -0.001625634326 
      0.001620344095 
     -0.269649376518 
     -0.513844744646 
      0.001620063832 
     -0.269649577540 
     -0.513841334371 
      0.001620440007 
     -0.269650265230 
     -0.513837445231 
     -0.511260435570 
     -0.702220625350 
     -0.823694347360 
     -0.511258340561 
     -0.702223422106 
     -0.823685243428 
     -0.511254328553 
     -0.702227772361 
     -0.823679472234 
     -0.822785308391 
     -0.860589127727 
     -0.814986044766 
     -0.822769672215 
     -0.860597615374 
     -0.815018225233 
     -0.822755730165 
     -0.860602620732 
     -0.815064987909 
     -0.816134829684 
     -0.690858766639 
     -0.499786037006 
     -0.816126199623 
     -0.690834867353 
     -0.499896549285 
     -0.816133725221 
     -0.690785600225 
     -0.499946498195 
     -0.500839074321 
     -0.263910750286 
      0.001056071384 
     -0.501168339341 
     -0.263711454575 
      0.000990084811 
     -0.501332043013 
     -0.263760236451 
      0.001104632679 
      0.001690502707 
     -0.271176586081 
     -0.513192548708 
      0.000986415325 
     -0.270979824098 
     -0.513343467424 
      0.001089976274 
     -0.270841044174 
     -0.513535499512 
     -0.511947493013 
     -0.702311371970 
     -0.823540304303 
     -0.511785829831 
     -0.702418768606 
     -0.823461054014 
     -0.511634243275 
     -0.702440970241 
     -0.823482775635 
     -0.822615381455 
     -0.860600385936 
     -0.815337369618 
     -0.822502780357 
     -0.860616619041 
     -0.815334867955 
     -0.822462782439 
     -0.860608462170 
     -0.815357003430 
     -0.816401604773 
     -0.690561885385 
     -0.499343863498 
     -0.816380913171 
     -0.690561645116 
     -0.499346053940 
     -0.816387063539 
     -0.690556454397 
     -0.499352488115 
     -0.501892835617 
     -0.262444002279 
      0.001551577252 
     -0.501890832329 
     -0.262443773776 
      0.001551069069 
     -0.501895504962 
     -0.262442599646 
      0.001549936525 
     -0.001550546821 
      0.262441528858 
      0.501902529024 
     -0.001550259191 
      0.262441544085 
      0.501902428059 
     -0.001551423969 
      0.262441709563 
      0.501902280771 
      0.499355945194 
      0.690556947717 
      0.816354392016 
      0.499356021873 
      0.690556954641 
      0.816354354433 
      0.499355816593 
      0.690556976874 
      0.816354345673 
      0.815312709964 
      0.860677126379 
      0.822745163602 
      0.815312722671 
      0.860677132522 
      0.822745135357 
      0.815312694094 
      0.860677126942 
      0.822745201370 
      0.823666196608 
      0.702215495412 
      0.511260229933 
      0.823666194344 
      0.702215506880 
      0.511260172203 
      0.823666252246 
      0.702215442176 
      0.511260461947 
      0.513851044158 
      0.269651933384 
     -0.001625894935 
      0.513851006681 
      0.269651976206 
     -0.001625957787 
      0.513851409721 
      0.269651642631 
     -0.001625179060 
      0.001620183371 
     -0.269650006884 
     -0.513838268425 
      0.001619985494 
     -0.269649906963 
     -0.513837887713 
      0.001621903444 
     -0.269651149075 
     -0.513838507786 
     -0.511255397053 
     -0.702226827771 
     -0.823678845470 
     -0.511256270180 
     -0.702226666324 
     -0.823677479687 
     -0.511250266335 
     -0.702228360816 
     -0.823701046473 
     -0.822756234725 
     -0.860603481777 
     -0.815046928278 
     -0.822764027346 
     -0.860598733410 
     -0.815047694927 
     -0.822761512715 
     -0.860581308510 
     -0.815171633170 
     -0.816124550234 
     -0.690804912468 
     -0.499900992796 
     -0.816174256576 
     -0.690785700119 
     -0.499740958920 
     -0.816258206192 
     -0.690701999158 
     -0.499883851908 
     -0.501076521629 
     -0.263907100344 
      0.001472603273 
     -0.501416926131 
     -0.263799295022 
      0.001593682627 
     -0.501586133864 
     -0.263812193834 
      0.001180200765 
      0.001830546060 
     -0.271001117115 
     -0.513135420377 
      0.001481279466 
     -0.271053742718 
     -0.513164458522 
      0.002366828028 
     -0.271032542917 
     -0.513236954847 
     -0.511722140776 
     -0.702440299743 
     -0.823482566251 
     -0.511799149114 
     -0.702417057706 
     -0.823460709009 
     -0.511762217884 
     -0.702380221744 
     -0.823521553670 
     -0.822471415185 
     -0.860608223464 
     -0.815355645978 
     -0.822492384076 
     -0.860613450893 
     -0.815345640327 
     -0.822493836502 
     -0.860604909161 
     -0.815361420921 
     -0.816390043791 
     -0.690556604673 
     -0.499351663697 
     -0.816385969966 
     -0.690558178080 
     -0.499351368344 
     -0.816388802918 
     -0.690557283790 
     -0.499353207545 
     -0.501895610583 
     -0.262442774016 
      0.001550185956 
     -0.501893862217 
     -0.262442721187 
      0.001549568349 
     -0.501893930346 
     -0.262442385632 
      0.001548932678 
     -0.001551400922 
      0.262441676607 
      0.501902329035 
     -0.001551201653 
      0.262441829307 
      0.501902043703 
     -0.001551785674 
      0.262441978423 
      0.501901916148 
      0.499355835551 
      0.690556969334 
      0.816354354137 
      0.499355735107 
      0.690557026525 
      0.816354285477 
      0.499355528664 
      0.690557054326 
      0.816354276950 
      0.815312699575 
      0.860677126396 
      0.822745203085 
      0.815312657916 
      0.860677131917 
      0.822745190250 
      0.815312621781 
      0.860677128086 
      0.822745217958 
      0.823666246803 
      0.702215445539 
      0.511260478184 
      0.823666281868 
      0.702215426158 
      0.511260371932 
      0.823666317246 
      0.702215397145 
      0.511260462109 
      0.513851384415 
      0.269651648444 
     -0.001625080988 
      0.513851512697 
      0.269651651027 
     -0.001625846034 
      0.513851683145 
      0.269651544574 
     -0.001625678911 
      0.001621871375 
     -0.269651190650 
     -0.513837950361 
      0.001621932436 
     -0.269650800433 
     -0.513841915205 
      0.001622460457 
     -0.269651041932 
     -0.513841768147 
     -0.511249784067 
     -0.702228942663 
     -0.823698925088 
     -0.511251933122 
     -0.702225914929 
     -0.823717219970 
     -0.511250346889 
     -0.702226684606 
     -0.823714454702 
     -0.822758281243 
     -0.860584092915 
     -0.815169734514 
     -0.822776745991 
     -0.860564910757 
     -0.815216939849 
     -0.822773594832 
     -0.860566526340 
     -0.815185922758 
     -0.816242910854 
     -0.690699310459 
     -0.499826783063 
     -0.816321446471 
     -0.690673352840 
     -0.499813882349 
     -0.816314108393 
     -0.690706883282 
     -0.499651045299 
     -0.501095879097 
     -0.264175273128 
      0.002033348837 
     -0.501567034328 
     -0.263953423959 
      0.001818975721 
     -0.501311536002 
     -0.264139649832 
      0.001796410853 
SCALARS  HV  double
LOOKUP_TABLE default
      0.000072354249 
     -0.000003550303 
      0.000028299293 
      0.000182728998 
     -0.000091034114 
      0.000151176011 
      0.000213860345 
     -0.000127271156 
      0.000146478703 
     -0.000092587499 
      0.000022361729 
     -0.000026475031 
      0.000059768029 
      0.000017485375 
     -0.000014688087 
      0.000175119559 
     -0.000006994821 
      0.000014346951 
     -0.000017685677 
      0.000003117585 
     -0.000003867626 
     -0.000011239723 
      0.000003192628 
     -0.000001746365 
      0.000022640143 
     -0.000001707224 
      0.000002202767 
     -0.000004397760 
      0.000000428814 
     -0.000000273901 
     -0.000002798434 
      0.000000046713 
      0.000000377402 
      0.000003837820 
     -0.000000788902 
      0.000000730989 
     -0.000000653502 
      0.000000053797 
      0.000000028566 
      0.000000025231 
     -0.000000160484 
      0.000000174734 
      0.000001279818 
     -0.000000203984 
      0.000000047566 
     -0.000000166764 
      0.000000012199 
      0.000000017885 
      0.000000173198 
     -0.000000034829 
      0.000000017267 
      0.000000288026 
     -0.000000002018 
     -0.000000046338 
     -0.000000011346 
     -0.000000000897 
      0.000000006790 
      0.000000034994 
     -0.000000002593 
     -0.000000001177 
      0.000000040139 
      0.000000011567 
     -0.000000022288 
     -0.000000002105 
     -0.000000001204 
      0.000000012031 
      0.000000005582 
     -0.000000000773 
      0.000000006205 
     -0.000000004475 
      0.000000005012 
     -0.000000005127 
     -0.000000000073 
     -0.000000003005 
      0.000000042394 
      0.000000008480 
     -0.000000007384 
      0.000000031565 
     -0.000000008533 
      0.000000003018 
      0.000000032139 
      0.000000012968 
     -0.000000036194 
      0.000000169407 
      0.000000045844 
     -0.000000036350 
      0.000000156246 
      0.000000002854 
     -0.000000024392 
      0.000000181179 
      0.000000170703 
     -0.000000131263 