# vtk DataFile Version 2.0
NDG-FEM NonhydrostaticStandingWave2d Simulation
ASCII
DATASET UNSTRUCTURED_GRID

POINTS 480 double
0.00000000000000000000  0.00000000000000000000  0.00000000000000000000
1.00000000000000000000  0.00000000000000000000  0.00000000000000000000
2.00000000000000000000  0.00000000000000000000  0.00000000000000000000
0.00000000000000000000  1.00000000000000000000  0.00000000000000000000
1.00000000000000000000  1.00000000000000000000  0.00000000000000000000
0.00000000000000000000  2.00000000000000000000  0.00000000000000000000
2.00000000000000000000  0.00000000000000000000  0.00000000000000000000
3.00000000000000000000  0.00000000000000000000  0.00000000000000000000
4.00000000000000000000  0.00000000000000000000  0.00000000000000000000
2.00000000000000000000  1.00000000000000000000  0.00000000000000000000
3.00000000000000000000  1.00000000000000000000  0.00000000000000000000
2.00000000000000000000  2.00000000000000000000  0.00000000000000000000
4.00000000000000000000  0.00000000000000000000  0.00000000000000000000
5.00000000000000000000  0.00000000000000000000  0.00000000000000000000
6.00000000000000000000  0.00000000000000000000  0.00000000000000000000
4.00000000000000000000  1.00000000000000000000  0.00000000000000000000
5.00000000000000000000  1.00000000000000000000  0.00000000000000000000
4.00000000000000000000  2.00000000000000000000  0.00000000000000000000
6.00000000000000000000  0.00000000000000000000  0.00000000000000000000
7.00000000000000000000  0.00000000000000000000  0.00000000000000000000
8.00000000000000000000  0.00000000000000000000  0.00000000000000000000
6.00000000000000000000  1.00000000000000000000  0.00000000000000000000
7.00000000000000000000  1.00000000000000000000  0.00000000000000000000
6.00000000000000000000  2.00000000000000000000  0.00000000000000000000
8.00000000000000000000  0.00000000000000000000  0.00000000000000000000
9.00000000000000000000  0.00000000000000000000  0.00000000000000000000
10.00000000000000000000  0.00000000000000000000  0.00000000000000000000
8.00000000000000000000  1.00000000000000000000  0.00000000000000000000
9.00000000000000000000  1.00000000000000000000  0.00000000000000000000
8.00000000000000000000  2.00000000000000000000  0.00000000000000000000
10.00000000000000000000  0.00000000000000000000  0.00000000000000000000
11.00000000000000000000  0.00000000000000000000  0.00000000000000000000
12.00000000000000000000  0.00000000000000000000  0.00000000000000000000
10.00000000000000000000  1.00000000000000000000  0.00000000000000000000
11.00000000000000000000  1.00000000000000000000  0.00000000000000000000
10.00000000000000000000  2.00000000000000000000  0.00000000000000000000
12.00000000000000000000  0.00000000000000000000  0.00000000000000000000
13.00000000000000000000  0.00000000000000000000  0.00000000000000000000
14.00000000000000000000  0.00000000000000000000  0.00000000000000000000
12.00000000000000000000  1.00000000000000000000  0.00000000000000000000
13.00000000000000000000  1.00000000000000000000  0.00000000000000000000
12.00000000000000000000  2.00000000000000000000  0.00000000000000000000
14.00000000000000000000  0.00000000000000000000  0.00000000000000000000
15.00000000000000000000  0.00000000000000000000  0.00000000000000000000
16.00000000000000000000  0.00000000000000000000  0.00000000000000000000
14.00000000000000000000  1.00000000000000000000  0.00000000000000000000
15.00000000000000000000  1.00000000000000000000  0.00000000000000000000
14.00000000000000000000  2.00000000000000000000  0.00000000000000000000
16.00000000000000000000  0.00000000000000000000  0.00000000000000000000
17.00000000000000000000  0.00000000000000000000  0.00000000000000000000
18.00000000000000000000  0.00000000000000000000  0.00000000000000000000
16.00000000000000000000  1.00000000000000000000  0.00000000000000000000
17.00000000000000000000  1.00000000000000000000  0.00000000000000000000
16.00000000000000000000  2.00000000000000000000  0.00000000000000000000
18.00000000000000000000  0.00000000000000000000  0.00000000000000000000
19.00000000000000000000  0.00000000000000000000  0.00000000000000000000
20.00000000000000000000  0.00000000000000000000  0.00000000000000000000
18.00000000000000000000  1.00000000000000000000  0.00000000000000000000
19.00000000000000000000  1.00000000000000000000  0.00000000000000000000
18.00000000000000000000  2.00000000000000000000  0.00000000000000000000
2.00000000000000000000  0.00000000000000000000  0.00000000000000000000
2.00000000000000000000  1.00000000000000000000  0.00000000000000000000
2.00000000000000000000  2.00000000000000000000  0.00000000000000000000
1.00000000000000000000  1.00000000000000000000  0.00000000000000000000
1.00000000000000000000  2.00000000000000000000  0.00000000000000000000
0.00000000000000000000  2.00000000000000000000  0.00000000000000000000
4.00000000000000000000  0.00000000000000000000  0.00000000000000000000
4.00000000000000000000  1.00000000000000000000  0.00000000000000000000
4.00000000000000000000  2.00000000000000000000  0.00000000000000000000
3.00000000000000000000  1.00000000000000000000  0.00000000000000000000
3.00000000000000000000  2.00000000000000000000  0.00000000000000000000
2.00000000000000000000  2.00000000000000000000  0.00000000000000000000
6.00000000000000000000  0.00000000000000000000  0.00000000000000000000
6.00000000000000000000  1.00000000000000000000  0.00000000000000000000
6.00000000000000000000  2.00000000000000000000  0.00000000000000000000
5.00000000000000000000  1.00000000000000000000  0.00000000000000000000
5.00000000000000000000  2.00000000000000000000  0.00000000000000000000
4.00000000000000000000  2.00000000000000000000  0.00000000000000000000
8.00000000000000000000  0.00000000000000000000  0.00000000000000000000
8.00000000000000000000  1.00000000000000000000  0.00000000000000000000
8.00000000000000000000  2.00000000000000000000  0.00000000000000000000
7.00000000000000000000  1.00000000000000000000  0.00000000000000000000
7.00000000000000000000  2.00000000000000000000  0.00000000000000000000
6.00000000000000000000  2.00000000000000000000  0.00000000000000000000
10.00000000000000000000  0.00000000000000000000  0.00000000000000000000
10.00000000000000000000  1.00000000000000000000  0.00000000000000000000
10.00000000000000000000  2.00000000000000000000  0.00000000000000000000
9.00000000000000000000  1.00000000000000000000  0.00000000000000000000
9.00000000000000000000  2.00000000000000000000  0.00000000000000000000
8.00000000000000000000  2.00000000000000000000  0.00000000000000000000
12.00000000000000000000  0.00000000000000000000  0.00000000000000000000
12.00000000000000000000  1.00000000000000000000  0.00000000000000000000
12.00000000000000000000  2.00000000000000000000  0.00000000000000000000
11.00000000000000000000  1.00000000000000000000  0.00000000000000000000
11.00000000000000000000  2.00000000000000000000  0.00000000000000000000
10.00000000000000000000  2.00000000000000000000  0.00000000000000000000
14.00000000000000000000  0.00000000000000000000  0.00000000000000000000
14.00000000000000000000  1.00000000000000000000  0.00000000000000000000
14.00000000000000000000  2.00000000000000000000  0.00000000000000000000
13.00000000000000000000  1.00000000000000000000  0.00000000000000000000
13.00000000000000000000  2.00000000000000000000  0.00000000000000000000
12.00000000000000000000  2.00000000000000000000  0.00000000000000000000
16.00000000000000000000  0.00000000000000000000  0.00000000000000000000
16.00000000000000000000  1.00000000000000000000  0.00000000000000000000
16.00000000000000000000  2.00000000000000000000  0.00000000000000000000
15.00000000000000000000  1.00000000000000000000  0.00000000000000000000
15.00000000000000000000  2.00000000000000000000  0.00000000000000000000
14.00000000000000000000  2.00000000000000000000  0.00000000000000000000
18.00000000000000000000  0.00000000000000000000  0.00000000000000000000
18.00000000000000000000  1.00000000000000000000  0.00000000000000000000
18.00000000000000000000  2.00000000000000000000  0.00000000000000000000
17.00000000000000000000  1.00000000000000000000  0.00000000000000000000
17.00000000000000000000  2.00000000000000000000  0.00000000000000000000
16.00000000000000000000  2.00000000000000000000  0.00000000000000000000
20.00000000000000000000  0.00000000000000000000  0.00000000000000000000
20.00000000000000000000  1.00000000000000000000  0.00000000000000000000
20.00000000000000000000  2.00000000000000000000  0.00000000000000000000
19.00000000000000000000  1.00000000000000000000  0.00000000000000000000
19.00000000000000000000  2.00000000000000000000  0.00000000000000000000
18.00000000000000000000  2.00000000000000000000  0.00000000000000000000
0.00000000000000000000  2.00000000000000000000  0.00000000000000000000
1.00000000000000000000  2.00000000000000000000  0.00000000000000000000
2.00000000000000000000  2.00000000000000000000  0.00000000000000000000
0.00000000000000000000  3.00000000000000000000  0.00000000000000000000
1.00000000000000000000  3.00000000000000000000  0.00000000000000000000
0.00000000000000000000  4.00000000000000000000  0.00000000000000000000
2.00000000000000000000  2.00000000000000000000  0.00000000000000000000
3.00000000000000000000  2.00000000000000000000  0.00000000000000000000
4.00000000000000000000  2.00000000000000000000  0.00000000000000000000
2.00000000000000000000  3.00000000000000000000  0.00000000000000000000
3.00000000000000000000  3.00000000000000000000  0.00000000000000000000
2.00000000000000000000  4.00000000000000000000  0.00000000000000000000
4.00000000000000000000  2.00000000000000000000  0.00000000000000000000
5.00000000000000000000  2.00000000000000000000  0.00000000000000000000
6.00000000000000000000  2.00000000000000000000  0.00000000000000000000
4.00000000000000000000  3.00000000000000000000  0.00000000000000000000
5.00000000000000000000  3.00000000000000000000  0.00000000000000000000
4.00000000000000000000  4.00000000000000000000  0.00000000000000000000
[...]
POINT_DATA 480
SCALARS  H  double
LOOKUP_TABLE default
      7.526473238014 
      7.530631816968 
      7.542776839013 
      7.526460542539 
      7.530612491793 
      7.526396917052 
      7.542653103035 
      7.561712328591 
      7.585481682078 
      7.542735220275 
      7.561669968393 
      7.542724611267 
      7.585317654550 
      7.612020648945 
      7.638323352152 
      7.585477931254 
      7.611950141980 
      7.585464445094 
      7.638178843406 
      7.662344817549 
      7.681131028411 
      7.638369594439 
      7.662268212037 
      7.638352018501 
      7.681057146556 
      7.693442675267 
      7.697548082698 
      7.681207637609 
      7.693392918856 
      7.681191764779 
      7.697555757767 
      7.693414470324 
      7.681259346556 
      7.697607244664 
      7.693408899068 
      7.697596770589 
      7.681372999876 
      7.662266792875 
      7.638507110625 
      7.681289065595 
      7.662312473966 
      7.681289322334 
      7.638683121283 
      7.611924439908 
      7.585640436108 
      7.638495546916 
      7.612004609788 
      7.638503231150 
      7.585806332408 
      7.561635024863 
      7.542863356544 
      7.585600620147 
      7.561713275440 
      7.585611929147 
      7.542954110979 
      7.530583244127 
      7.526521128159 
      7.542813244191 
      7.530637956632 
      7.542818001829 
      7.542718916326 
      7.542793424665 
      7.542798951713 
      7.530617211363 
      7.530617865411 
      7.526411852166 
      7.585409192079 
      7.585567842906 
      7.585573773190 
      7.561687544805 
      7.561688362127 
      7.542683403122 
      7.638262911939 
      7.638457780876 
      7.638454698259 
      7.611975033218 
      7.611984182250 
      7.585395737673 
      7.681105391261 
      7.681262132166 
      7.681247867488 
      7.662291006082 
      7.662307313976 
      7.638282768066 
      7.697551296790 
      7.697601136652 
      7.697590773272 
      7.693403824675 
      7.693421481818 
      7.681150210991 
      7.681305475417 
      7.681224549769 
      7.681220322153 
      7.693406028956 
      7.693418909999 
      7.697598909512 
      7.638579826834 
      7.638401612276 
      7.638397317035 
      7.662298494574 
      7.662299261887 
      7.681330454876 
      7.585708809649 
      7.585512149399 
      7.585508488411 
      7.611985649741 
      7.611970818938 
      7.638575103305 
      7.542900828876 
      7.542762945348 
      7.542754214682 
      7.561696512690 
      7.561674205407 
      7.585687267075 
      7.526492983433 
      7.526441030567 
      7.526426737723 
      7.530630640691 
      7.530611385222 
      7.542868740490 
      7.526420734312 
      7.530610153262 
      7.542840701630 
      7.526442546034 
      7.530615181134 
      7.526398031748 
      7.542729878829 
      7.561668093831 
      7.585648466951 
      7.542754640349 
      7.561675642959 
      7.542739139647 
      7.585471180183 
      7.611958681601 
      7.638536858780 
      7.585499113086 
      7.611967537311 
      7.585484611654 
      7.638357773003 
      7.662286481322 
      7.681305582044 
      7.638381911223 
      7.662292978691 
      7.638371107533 
      7.681193361979 
      7.693412962422 
      7.697596394831 
      7.681205005821 
      7.693414648395 
      7.681202297377 
      7.697590090780 
      7.693425820900 
      7.681173326917 
      7.697589556224 
      7.693418520892 
      7.697595724314 
      7.681273562506 
      7.662317947351 
      7.638321202002 
      7.681261350675 
      7.662308195848 
      7.681275709884 
      7.638496933394 
      7.611994822351 
      7.585435660195 
      7.638471708459 
      7.611987828068 
      7.638483442761 
      7.585617324918 
      7.561694363195 
      7.542712378773 
      7.585588896717 
      7.561693296468 
      7.585592849717 
      7.542831632052 
      7.530619742765 
      7.526421255636 
      7.542810935552 
      7.530622215024 
      7.542804160455 
      7.542790365635 
      7.542811222883 
      7.542816300913 
      7.530621517968 
      7.530618077448 
      7.526411144945 
      7.585573661593 
      7.585589261041 
      7.585597815992 
      7.561693324158 
      7.561692860404 
      7.542695967376 
      7.638465094807 
      7.638472543634 
      7.638478123159 
      7.611988879161 
      7.611990832978 
      7.585413819653 
      7.681264458217 
      7.681261776460 
      7.681261800821 
      7.662309711214 
      7.662313692209 
      7.638300380907 
      7.697596511251 
      7.697589490254 
      7.697588970161 
      7.693419286862 
      7.693423668348 
      7.681160513194 
      7.681215031976 
      7.681204386600 
      7.681203115831 
      7.693413835205 
      7.693416126092 
      7.697596207999 
      7.638391096029 
      7.638381015146 
      7.638374325712 
      7.662291896103 
      7.662292856486 
      7.681317037689 
      7.585505614863 
      7.585498703548 
      7.585488381853 
      7.611966959473 
      7.611964547613 
      7.638555684780 
      7.542755004712 
      7.542754503208 
      7.542741927555 
      7.561676090255 
      7.561671244353 
      7.585667997856 
      7.526407444504 
      7.526441180866 
      7.526420346924 
      7.530616189340 
      7.530609349314 
      7.542854623734 
      7.526420346924 
      7.530609349314 
      7.542854623734 
      7.526441180866 
      7.530616189340 
      7.526407444504 
      7.542741927555 
      7.561671244353 
      7.585667997856 
      7.542754503208 
      7.561676090255 
      7.542755004712 
      7.585488381853 
      7.611964547613 
      7.638555684780 
      7.585498703548 
      7.611966959473 
      7.585505614863 
      7.638374325712 
      7.662292856486 
      7.681317037689 
      7.638381015146 
      7.662291896103 
      7.638391096029 
      7.681203115831 
      7.693416126092 
      7.697596207999 
      7.681204386600 
      7.693413835205 
      7.681215031976 
      7.697588970161 
      7.693423668348 
      7.681160513194 
      7.697589490254 
      7.693419286862 
      7.697596511251 
      7.681261800821 
      7.662313692209 
      7.638300380907 
      7.681261776460 
      7.662309711214 
      7.681264458217 
      7.638478123159 
      7.611990832978 
      7.585413819653 
      7.638472543634 
      7.611988879161 
      7.638465094807 
      7.585597815992 
      7.561692860404 
      7.542695967376 
      7.585589261041 
      7.561693324158 
      7.585573661593 
      7.542816300913 
      7.530618077448 
      7.526411144945 
      7.542811222883 
      7.530621517968 
      7.542790365635 
      7.542804160455 
      7.542810935552 
      7.542831632052 
      7.530622215024 
      7.530619742765 
      7.526421255636 
      7.585592849717 
      7.585588896717 
      7.585617324918 
      7.561693296468 
      7.561694363195 
      7.542712378773 
      7.638483442761 
      7.638471708459 
      7.638496933394 
      7.611987828068 
      7.611994822351 
      7.585435660195 
      7.681275709884 
      7.681261350675 
      7.681273562506 
      7.662308195848 
      7.662317947351 
      7.638321202002 
      7.697595724314 
      7.697589556224 
      7.697590090780 
      7.693418520892 
      7.693425820900 
      7.681173326917 
      7.681202297377 
      7.681205005821 
      7.681193361979 
      7.693414648395 
      7.693412962422 
      7.697596394831 
      7.638371107533 
      7.638381911223 
      7.638357773003 
      7.662292978691 
      7.662286481322 
      7.681305582044 
      7.585484611654 
      7.585499113086 
      7.585471180183 
      7.611967537311 
      7.611958681601 
      7.638536858780 
      7.542739139647 
      7.542754640349 
      7.542729878829 
      7.561675642959 
      7.561668093831 
      7.585648466951 
      7.526398031748 
      7.526442546034 
      7.526420734312 
      7.530615181134 
      7.530610153262 
      7.542840701630 
      7.526426737723 
      7.530611385222 
      7.542868740490 
      7.526441030567 
      7.530630640691 
      7.526492983433 
      7.542754214682 
      7.561674205407 
      7.585687267075 
      7.542762945348 
      7.561696512690 
      7.542900828876 
      7.585508488411 
      7.611970818938 
      7.638575103305 
      7.585512149399 
      7.611985649741 
      7.585708809649 
      7.638397317035 
      7.662299261887 
      7.681330454876 
      7.638401612276 
      7.662298494574 
      7.638579826834 
      7.681220322153 
      7.693418909999 
      7.697598909512 
      7.681224549769 
      7.693406028956 
      7.681305475417 
      7.697590773272 
      7.693421481818 
      7.681150210991 
      7.697601136652 
      7.693403824675 
      7.697551296790 
      7.681247867488 
      7.662307313976 
      7.638282768066 
      7.681262132166 
      7.662291006082 
      7.681105391261 
      7.638454698259 
      7.611984182250 
      7.585395737673 
      7.638457780876 
      7.611975033218 
      7.638262911939 
      7.585573773190 
      7.561688362127 
      7.542683403122 
      7.585567842906 
      7.561687544805 
      7.585409192079 
      7.542798951713 
      7.530617865411 
      7.526411852166 
      7.542793424665 
      7.530617211363 
      7.542718916326 
      7.542818001829 
      7.542813244191 
      7.542954110979 
      7.530637956632 
      7.530583244127 
      7.526521128159 
      7.585611929147 
      7.585600620147 
      7.585806332408 
      7.561713275440 
      7.561635024863 
      7.542863356544 
      7.638503231150 
      7.638495546916 
      7.638683121283 
      7.612004609788 
      7.611924439908 
      7.585640436108 
      7.681289322334 
      7.681289065595 
      7.681372999876 
      7.662312473966 
      7.662266792875 
      7.638507110625 
      7.697596770589 
      7.697607244664 
      7.697555757767 
      7.693408899068 
      7.693414470324 
      7.681259346556 
      7.681191764779 
      7.681207637609 
      7.681057146556 
      7.693392918856 
      7.693442675267 
      7.697548082698 
      7.638352018501 
      7.638369594439 
      7.638178843406 
      7.662268212037 
      7.662344817549 
      7.681131028411 
      7.585464445094 
      7.585477931254 
      7.585317654550 
      7.611950141980 
      7.612020648945 
      7.638323352152 
      7.542724611267 
      7.542735220275 
      7.542653103035 
      7.561669968393 
      7.561712328591 
      7.585481682078 
      7.526396917052 
      7.526460542539 
      7.526473238014 
      7.530612491793 
      7.530631816968 
      7.542776839013 
SCALARS  HU  double
LOOKUP_TABLE default
      0.000234658242 
     -0.088271374321 
     -0.170559328513 
      0.000153286336 
     -0.088557780595 
      0.000364100137 
     -0.168976359548 
     -0.231671794089 
     -0.274284161534 
     -0.168764652367 
     -0.231947051674 
     -0.168696652756 
     -0.273181472877 
     -0.286225181412 
     -0.273153790686 
     -0.273003449113 
     -0.286385305436 
     -0.273024352861 
     -0.272838977714 
     -0.231439013452 
     -0.167890917270 
     -0.272768802036 
     -0.231423632460 
     -0.272884753181 
     -0.168477369817 
     -0.088505872486 
      0.001190052057 
     -0.168539860505 
     -0.088357472604 
     -0.168680375853 
      0.000012469596 
      0.088020070916 
      0.169861217648 
     -0.000202110533 
      0.088297259550 
     -0.000330599444 
      0.168496317315 
      0.231073557936 
      0.273963151756 
      0.168223873814 
      0.231406128920 
      0.168108476617 
      0.272908379765 
      0.286182145799 
      0.273561677818 
      0.272644955620 
      0.286406688655 
      0.272661530436 
      0.273251637972 
      0.231964920509 
      0.168471965026 
      0.273106697714 
      0.231998337320 
      0.273239906526 
      0.169037185343 
      0.088850612120 
     -0.001206081273 
      0.169064498721 
      0.088626649916 
      0.169293390038 
     -0.169506385613 
     -0.169044477753 
     -0.169354415252 
     -0.088858217468 
     -0.088765610379 
      0.001146406752 
     -0.273437946507 
     -0.273094097065 
     -0.273387652860 
     -0.232133817530 
     -0.232008580459 
     -0.168376614174 
     -0.272773825943 
     -0.272656131664 
     -0.272850576686 
     -0.286418023771 
     -0.286296063235 
     -0.273225256004 
     -0.168100637113 
     -0.168257238180 
     -0.168278160897 
     -0.231295958939 
     -0.231210967535 
     -0.273514251978 
      0.000439808304 
      0.000154739596 
      0.000263382504 
     -0.088119585028 
     -0.088102960736 
     -0.169491609463 
      0.168885784746 
      0.168509425945 
      0.168743434128 
      0.088549619429 
      0.088477334803 
     -0.000976841439 
      0.273109942939 
      0.272768055699 
      0.273050238042 
      0.231579389277 
      0.231440124280 
      0.167873218613 
      0.273171963922 
      0.273019693421 
      0.273234729416 
      0.286433841920 
      0.286279984052 
      0.272909905968 
      0.168705031439 
      0.168790273520 
      0.168849880849 
      0.231864508542 
      0.231755078684 
      0.273886218563 
     -0.000393507838 
     -0.000208679113 
     -0.000404535749 
      0.088362402776 
      0.088344382007 
      0.170149828485 
      0.000411387465 
     -0.088366947526 
     -0.170219477135 
      0.000217915693 
     -0.088385659909 
      0.000377446699 
     -0.168816278133 
     -0.231769664587 
     -0.273963621446 
     -0.168793608418 
     -0.231815322586 
     -0.168670529963 
     -0.273164245157 
     -0.286283931518 
     -0.272973436927 
     -0.273060932876 
     -0.286317263766 
     -0.273024256664 
     -0.272971542890 
     -0.231430196749 
     -0.167905303812 
     -0.272831128561 
     -0.231440623913 
     -0.272900683062 
     -0.168690137402 
     -0.088460603600 
      0.000991966714 
     -0.168565466999 
     -0.088449715551 
     -0.168706828629 
     -0.000231478975 
      0.088118425480 
      0.169527824629 
     -0.000204784288 
      0.088169667267 
     -0.000362679304 
      0.168274820718 
      0.231217743905 
      0.273591177900 
      0.168239719130 
      0.231268308849 
      0.168094770730 
      0.272817952825 
      0.286282721641 
      0.273315589486 
      0.272686393873 
      0.286323704053 
      0.272667321759 
      0.273334187779 
      0.231981615687 
      0.168439151900 
      0.273157135984 
      0.231997241551 
      0.273268843264 
      0.169290855435 
      0.088731402156 
     -0.001125676156 
      0.169113797247 
      0.088697392351 
      0.169333031293 
     -0.169346760996 
     -0.169121549757 
     -0.169297630630 
     -0.088706472722 
     -0.088738630165 
      0.001140254934 
     -0.273287428758 
     -0.273160516126 
     -0.273349005301 
     -0.231998640385 
     -0.231994276662 
     -0.168402847598 
     -0.272685511041 
     -0.272686471574 
     -0.272836654890 
     -0.286324075855 
     -0.286288541257 
     -0.273269174411 
     -0.168105245946 
     -0.168237219950 
     -0.168292423417 
     -0.231271157133 
     -0.231213897359 
     -0.273551644088 
      0.000358705447 
      0.000206054326 
      0.000229309512 
     -0.088171507284 
     -0.088105211549 
     -0.169514353220 
      0.168706215097 
      0.168567639364 
      0.168693177181 
      0.088448567082 
      0.088474587232 
     -0.000993623946 
      0.272916340227 
      0.272829610793 
      0.272981753754 
      0.231441426396 
      0.231443076356 
      0.167891675643 
      0.273045408873 
      0.273055681075 
      0.273178505682 
      0.286322261487 
      0.286285739737 
      0.272946356448 
      0.168690023018 
      0.168783984144 
      0.168826651131 
      0.231818320846 
      0.231758096320 
      0.273932410121 
     -0.000372203598 
     -0.000222329536 
     -0.000406034160 
      0.088382052346 
      0.088333591399 
      0.170192796399 
      0.000406034160 
     -0.088333591399 
     -0.170192796399 
      0.000222329536 
     -0.088382052346 
      0.000372203598 
     -0.168826651131 
     -0.231758096320 
     -0.273932410121 
     -0.168783984144 
     -0.231818320846 
     -0.168690023018 
     -0.273178505682 
     -0.286285739737 
     -0.272946356448 
     -0.273055681075 
     -0.286322261487 
     -0.273045408873 
     -0.272981753754 
     -0.231443076356 
     -0.167891675643 
     -0.272829610793 
     -0.231441426396 
     -0.272916340227 
     -0.168693177181 
     -0.088474587232 
      0.000993623946 
     -0.168567639364 
     -0.088448567082 
     -0.168706215097 
     -0.000229309512 
      0.088105211549 
      0.169514353220 
     -0.000206054326 
      0.088171507284 
     -0.000358705447 
      0.168292423417 
      0.231213897359 
      0.273551644088 
      0.168237219950 
      0.231271157133 
      0.168105245946 
      0.272836654890 
      0.286288541257 
      0.273269174411 
      0.272686471574 
      0.286324075855 
      0.272685511041 
      0.273349005301 
      0.231994276662 
      0.168402847598 
      0.273160516126 
      0.231998640385 
      0.273287428758 
      0.169297630630 
      0.088738630165 
     -0.001140254934 
      0.169121549757 
      0.088706472722 
      0.169346760996 
     -0.169333031293 
     -0.169113797247 
     -0.169290855435 
     -0.088697392351 
     -0.088731402156 
      0.001125676156 
     -0.273268843264 
     -0.273157135984 
     -0.273334187779 
     -0.231997241551 
     -0.231981615687 
     -0.168439151900 
     -0.272667321759 
     -0.272686393873 
     -0.272817952825 
     -0.286323704053 
     -0.286282721641 
     -0.273315589486 
     -0.168094770730 
     -0.168239719130 
     -0.168274820718 
     -0.231268308849 
     -0.231217743905 
     -0.273591177900 
      0.000362679304 
      0.000204784288 
      0.000231478975 
     -0.088169667267 
     -0.088118425480 
     -0.169527824629 
      0.168706828629 
      0.168565466999 
      0.168690137402 
      0.088449715551 
      0.088460603600 
     -0.000991966714 
      0.272900683062 
      0.272831128561 
      0.272971542890 
      0.231440623913 
      0.231430196749 
      0.167905303812 
      0.273024256664 
      0.273060932876 
      0.273164245157 
      0.286317263766 
      0.286283931518 
      0.272973436927 
      0.168670529963 
      0.168793608418 
      0.168816278133 
      0.231815322586 
      0.231769664587 
      0.273963621446 
     -0.000377446699 
     -0.000217915693 
     -0.000411387465 
      0.088385659909 
      0.088366947526 
      0.170219477135 
      0.000404535749 
     -0.088344382007 
     -0.170149828485 
      0.000208679113 
     -0.088362402776 
      0.000393507838 
     -0.168849880849 
     -0.231755078684 
     -0.273886218563 
     -0.168790273520 
     -0.231864508542 
     -0.168705031439 
     -0.273234729416 
     -0.286279984052 
     -0.272909905968 
     -0.273019693421 
     -0.286433841920 
     -0.273171963922 
     -0.273050238042 
     -0.231440124280 
     -0.167873218613 
     -0.272768055699 
     -0.231579389277 
     -0.273109942939 
     -0.168743434128 
     -0.088477334803 
      0.000976841439 
     -0.168509425945 
     -0.088549619429 
     -0.168885784746 
     -0.000263382504 
      0.088102960736 
      0.169491609463 
     -0.000154739596 
      0.088119585028 
     -0.000439808304 
      0.168278160897 
      0.231210967535 
      0.273514251978 
      0.168257238180 
      0.231295958939 
      0.168100637113 
      0.272850576686 
      0.286296063235 
      0.273225256004 
      0.272656131664 
      0.286418023771 
      0.272773825943 
      0.273387652860 
      0.232008580459 
      0.168376614174 
      0.273094097065 
      0.232133817530 
      0.273437946507 
      0.169354415252 
      0.088765610379 
     -0.001146406752 
      0.169044477753 
      0.088858217468 
      0.169506385613 
     -0.169293390038 
     -0.169064498721 
     -0.169037185343 
     -0.088626649916 