# vtk DataFile Version 2.0
NDG-FEM NonhydrostaticStandingWave2d Simulation
ASCII
DATASET UNSTRUCTURED_GRID

POINTS 160 double
0.00000000000000000000  0.00000000000000000000  0.00000000000000000000
1.00000000000000000000  0.00000000000000000000  0.00000000000000000000
0.00000000000000000000  1.00000000000000000000  0.00000000000000000000
1.00000000000000000000  1.00000000000000000000  0.00000000000000000000
1.00000000000000000000  0.00000000000000000000  0.00000000000000000000
2.00000000000000000000  0.00000000000000000000  0.00000000000000000000
1.00000000000000000000  1.00000000000000000000  0.00000000000000000000
2.00000000000000000000  1.00000000000000000000  0.00000000000000000000
2.00000000000000000000  0.00000000000000000000  0.00000000000000000000
3.00000000000000000000  0.00000000000000000000  0.00000000000000000000
2.00000000000000000000  1.00000000000000000000  0.00000000000000000000
3.00000000000000000000  1.00000000000000000000  0.00000000000000000000
3.00000000000000000000  0.00000000000000000000  0.00000000000000000000
4.00000000000000000000  0.00000000000000000000  0.00000000000000000000
3.00000000000000000000  1.00000000000000000000  0.00000000000000000000
4.00000000000000000000  1.00000000000000000000  0.00000000000000000000
4.00000000000000000000  0.00000000000000000000  0.00000000000000000000
5.00000000000000000000  0.00000000000000000000  0.00000000000000000000
4.00000000000000000000  1.00000000000000000000  0.00000000000000000000
5.00000000000000000000  1.00000000000000000000  0.00000000000000000000
5.00000000000000000000  0.00000000000000000000  0.00000000000000000000
6.00000000000000000000  0.00000000000000000000  0.00000000000000000000
5.00000000000000000000  1.00000000000000000000  0.00000000000000000000
6.00000000000000000000  1.00000000000000000000  0.00000000000000000000
6.00000000000000000000  0.00000000000000000000  0.00000000000000000000
7.00000000000000000000  0.00000000000000000000  0.00000000000000000000
6.00000000000000000000  1.00000000000000000000  0.00000000000000000000
7.00000000000000000000  1.00000000000000000000  0.00000000000000000000
7.00000000000000000000  0.00000000000000000000  0.00000000000000000000
8.00000000000000000000  0.00000000000000000000  0.00000000000000000000
7.00000000000000000000  1.00000000000000000000  0.00000000000000000000
8.00000000000000000000  1.00000000000000000000  0.00000000000000000000
8.00000000000000000000  0.00000000000000000000  0.00000000000000000000
9.00000000000000000000  0.00000000000000000000  0.00000000000000000000
8.00000000000000000000  1.00000000000000000000  0.00000000000000000000
9.00000000000000000000  1.00000000000000000000  0.00000000000000000000
9.00000000000000000000  0.00000000000000000000  0.00000000000000000000
10.00000000000000000000  0.00000000000000000000  0.00000000000000000000
9.00000000000000000000  1.00000000000000000000  0.00000000000000000000
10.00000000000000000000  1.00000000000000000000  0.00000000000000000000
10.00000000000000000000  0.00000000000000000000  0.00000000000000000000
11.00000000000000000000  0.00000000000000000000  0.00000000000000000000
10.00000000000000000000  1.00000000000000000000  0.00000000000000000000
11.00000000000000000000  1.00000000000000000000  0.00000000000000000000
11.00000000000000000000  0.00000000000000000000  0.00000000000000000000
12.00000000000000000000  0.00000000000000000000  0.00000000000000000000
11.00000000000000000000  1.00000000000000000000  0.00000000000000000000
12.00000000000000000000  1.00000000000000000000  0.00000000000000000000
12.00000000000000000000  0.00000000000000000000  0.00000000000000000000
13.00000000000000000000  0.00000000000000000000  0.00000000000000000000
12.00000000000000000000  1.00000000000000000000  0.00000000000000000000
13.00000000000000000000  1.00000000000000000000  0.00000000000000000000
13.00000000000000000000  0.00000000000000000000  0.00000000000000000000
14.00000000000000000000  0.00000000000000000000  0.00000000000000000000
13.00000000000000000000  1.00000000000000000000  0.00000000000000000000
14.00000000000000000000  1.00000000000000000000  0.00000000000000000000
14.00000000000000000000  0.00000000000000000000  0.00000000000000000000
15.00000000000000000000  0.00000000000000000000  0.00000000000000000000
14.00000000000000000000  1.00000000000000000000  0.00000000000000000000
15.00000000000000000000  1.00000000000000000000  0.00000000000000000000
15.00000000000000000000  0.00000000000000000000  0.00000000000000000000
16.00000000000000000000  0.00000000000000000000  0.00000000000000000000
15.00000000000000000000  1.00000000000000000000  0.00000000000000000000
16.00000000000000000000  1.00000000000000000000  0.00000000000000000000
16.00000000000000000000  0.00000000000000000000  0.00000000000000000000
17.00000000000000000000  0.00000000000000000000  0.00000000000000000000
16.00000000000000000000  1.00000000000000000000  0.00000000000000000000
17.00000000000000000000  1.00000000000000000000  0.00000000000000000000
17.00000000000000000000  0.00000000000000000000  0.00000000000000000000
18.00000000000000000000  0.00000000000000000000  0.00000000000000000000
17.00000000000000000000  1.00000000000000000000  0.00000000000000000000
18.00000000000000000000  1.00000000000000000000  0.00000000000000000000
18.00000000000000000000  0.00000000000000000000  0.00000000000000000000
19.00000000000000000000  0.00000000000000000000  0.00000000000000000000
18.00000000000000000000  1.00000000000000000000  0.00000000000000000000
19.00000000000000000000  1.00000000000000000000  0.00000000000000000000
19.00000000000000000000  0.00000000000000000000  0.00000000000000000000
20.00000000000000000000  0.00000000000000000000  0.00000000000000000000
19.00000000000000000000  1.00000000000000000000  0.00000000000000000000
20.00000000000000000000  1.00000000000000000000  0.00000000000000000000
0.00000000000000000000  1.00000000000000000000  0.00000000000000000000
1.00000000000000000000  1.00000000000000000000  0.00000000000000000000
0.00000000000000000000  2.00000000000000000000  0.00000000000000000000
1.00000000000000000000  2.00000000000000000000  0.00000000000000000000
1.00000000000000000000  1.00000000000000000000  0.00000000000000000000
2.00000000000000000000  1.00000000000000000000  0.00000000000000000000
1.00000000000000000000  2.00000000000000000000  0.00000000000000000000
2.00000000000000000000  2.00000000000000000000  0.00000000000000000000
2.00000000000000000000  1.00000000000000000000  0.00000000000000000000
3.00000000000000000000  1.00000000000000000000  0.00000000000000000000
2.00000000000000000000  2.00000000000000000000  0.00000000000000000000
3.00000000000000000000  2.00000000000000000000  0.00000000000000000000
3.00000000000000000000  1.00000000000000000000  0.00000000000000000000
4.00000000000000000000  1.00000000000000000000  0.00000000000000000000
3.00000000000000000000  2.00000000000000000000  0.00000000000000000000
4.00000000000000000000  2.00000000000000000000  0.00000000000000000000
4.00000000000000000000  1.00000000000000000000  0.00000000000000000000
5.00000000000000000000  1.00000000000000000000  0.00000000000000000000
4.00000000000000000000  2.00000000000000000000  0.00000000000000000000
5.00000000000000000000  2.00000000000000000000  0.00000000000000000000
5.00000000000000000000  1.00000000000000000000  0.00000000000000000000
6.00000000000000000000  1.00000000000000000000  0.00000000000000000000
5.00000000000000000000  2.00000000000000000000  0.00000000000000000000
6.00000000000000000000  2.00000000000000000000  0.00000000000000000000
6.00000000000000000000  1.00000000000000000000  0.00000000000000000000
7.00000000000000000000  1.00000000000000000000  0.00000000000000000000
6.00000000000000000000  2.00000000000000000000  0.00000000000000000000
7.00000000000000000000  2.00000000000000000000  0.00000000000000000000
7.00000000000000000000  1.00000000000000000000  0.00000000000000000000
8.00000000000000000000  1.00000000000000000000  0.00000000000000000000
7.00000000000000000000  2.00000000000000000000  0.00000000000000000000
8.00000000000000000000  2.00000000000000000000  0.00000000000000000000
8.00000000000000000000  1.00000000000000000000  0.00000000000000000000
9.00000000000000000000  1.00000000000000000000  0.00000000000000000000
8.00000000000000000000  2.00000000000000000000  0.00000000000000000000
9.00000000000000000000  2.00000000000000000000  0.00000000000000000000
9.00000000000000000000  1.00000000000000000000  0.00000000000000000000
10.00000000000000000000  1.00000000000000000000  0.00000000000000000000
9.00000000000000000000  2.00000000000000000000  0.00000000000000000000
10.00000000000000000000  2.00000000000000000000  0.00000000000000000000
10.00000000000000000000  1.00000000000000000000  0.00000000000000000000
11.00000000000000000000  1.00000000000000000000  0.00000000000000000000
10.00000000000000000000  2.00000000000000000000  0.00000000000000000000
11.00000000000000000000  2.00000000000000000000  0.00000000000000000000
11.00000000000000000000  1.00000000000000000000  0.00000000000000000000
12.00000000000000000000  1.00000000000000000000  0.00000000000000000000
11.00000000000000000000  2.00000000000000000000  0.00000000000000000000
12.00000000000000000000  2.00000000000000000000  0.00000000000000000000
12.00000000000000000000  1.00000000000000000000  0.00000000000000000000
13.00000000000000000000  1.00000000000000000000  0.00000000000000000000
12.00000000000000000000  2.00000000000000000000  0.00000000000000000000
13.00000000000000000000  2.00000000000000000000  0.00000000000000000000
13.00000000000000000000  1.00000000000000000000  0.00000000000000000000
14.00000000000000000000  1.00000000000000000000  0.00000000000000000000
13.00000000000000000000  2.00000000000000000000  0.00000000000000000000
14.00000000000000000000  2.00000000000000000000  0.00000000000000000000
14.00000000000000000000  1.00000000000000000000  0.00000000000000000000
15.00000000000000000000  1.00000000000000000000  0.00000000000000000000
14.00000000000000000000  2.00000000000000000000  0.00000000000000000000
15.00000000000000000000  2.00000000000000000000  0.00000000000000000000
15.00000000000000000000  1.00000000000000000000  0.00000000000000000000
16.00000000000000000000  1.00000000000000000000  0.00000000000000000000
15.00000000000000000000  2.00000000000000000000  0.00000000000000000000
16.00000000000000000000  2.00000000000000000000  0.00000000000000000000
16.00000000000000000000  1.00000000000000000000  0.00000000000000000000
17.00000000000000000000  1.00000000000000000000  0.00000000000000000000
16.00000000000000000000  2.00000000000000000000  0.00000000000000000000
17.00000000000000000000  2.00000000000000000000  0.00000000000000000000
17.00000000000000000000  1.00000000000000000000  0.00000000000000000000
18.00000000000000000000  1.00000000000000000000  0.00000000000000000000
17.00000000000000000000  2.00000000000000000000  0.00000000000000000000
18.00000000000000000000  2.00000000000000000000  0.00000000000000000000
18.00000000000000000000  1.00000000000000000000  0.00000000000000000000
19.00000000000000000000  1.00000000000000000000  0.00000000000000000000
18.00000000000000000000  2.00000000000000000000  0.00000000000000000000
19.00000000000000000000  2.00000000000000000000  0.00000000000000000000
19.00000000000000000000  1.00000000000000000000  0.00000000000000000000
20.00000000000000000000  1.00000000000000000000  0.00000000000000000000
19.00000000000000000000  2.00000000000000000000  0.00000000000000000000
20.00000000000000000000  2.00000000000000000000  0.00000000000000000000

CELLS 40 200
4 0 1 3 2 
4 4 5 7 6 
4 8 9 11 10 
4 12 13 15 14 
4 16 17 19 18 
4 20 21 23 22 
4 24 25 27 26 
4 28 29 31 30 
4 32 33 35 34 
4 36 37 39 38 
4 40 41 43 42 
4 44 45 47 46 
4 48 49 51 50 
4 52 53 55 54 
4 56 57 59 58 
4 60 61 63 62 
4 64 65 67 66 
4 68 69 71 70 
4 72 73 75 74 
4 76 77 79 78 
4 80 81 83 82 
4 84 85 87 86 
4 88 89 91 90 
4 92 93 95 94 
4 96 97 99 98 
4 100 101 103 102 
4 104 105 107 106 
4 108 109 111 110 
4 112 113 115 114 
4 116 117 119 118 
4 120 121 123 122 
4 124 125 127 126 
4 128 129 131 130 
4 132 133 135 134 
4 136 137 139 138 
4 140 141 143 142 
4 144 145 147 146 
4 148 149 151 150 
4 152 153 155 154 
4 156 157 159 158 

CELL_TYPES 40
9 9 9 9 9 9 9 9 9 9 9 9 
9 9 9 9 9 9 9 9 9 9 9 9 
9 9 9 9 9 9 9 9 9 9 9 9 
9 9 9 9 

POINT_DATA 160
SCALARS  H  double
LOOKUP_TABLE default
      7.588549187820 
      7.588477470813 
      7.588549187820 
      7.588477470813 
      7.588326000223 
      7.592375659274 
      7.588326000223 
      7.592375659274 
      7.591755343229 
      7.597667979329 
      7.591755343229 
      7.597667979329 
      7.596888370084 
      7.604502535626 
      7.596888370084 
      7.604502535626 
      7.603581963304 
      7.612125741114 
      7.603581963304 
      7.612125741114 
      7.611169473662 
      7.619828791763 
      7.611169473662 
      7.619828791763 
      7.618926886288 
      7.626833367487 
      7.618926886288 
      7.626833367487 
      7.626071488992 
      7.632409461637 
      7.626071488992 
      7.632409461637 
      7.631855088606 
      7.635959799448 
      7.631855088606 
      7.635959799448 
      7.635634617883 
      7.637060773414 
      7.635634617883 
      7.637060773414 
      7.637060773414 
      7.635634617883 
      7.637060773414 
      7.635634617883 
      7.635959799448 
      7.631855088606 
      7.635959799448 
      7.631855088606 
      7.632409461637 
      7.626071488992 
      7.632409461637 
      7.626071488992 
      7.626833367487 
      7.618926886288 
      7.626833367487 
      7.618926886288 
      7.619828791763 
      7.611169473662 
      7.619828791763 
      7.611169473662 
      7.612125741114 
      7.603581963304 
      7.612125741114 
      7.603581963304 
      7.604502535626 
      7.596888370084 
      7.604502535626 
      7.596888370084 
      7.597667979329 
      7.591755343229 
      7.597667979329 
      7.591755343229 
      7.592375659274 
      7.588326000223 
      7.592375659274 
      7.588326000223 
      7.588477470813 
      7.588549187820 
      7.588477470813 
      7.588549187820 
      7.588549187820 
      7.588477470813 
      7.588549187820 
      7.588477470813 
      7.588326000223 
      7.592375659274 
      7.588326000223 
      7.592375659274 
      7.591755343229 
      7.597667979329 
      7.591755343229 
      7.597667979329 
      7.596888370084 
      7.604502535626 
      7.596888370084 
      7.604502535626 
      7.603581963304 
      7.612125741114 
      7.603581963304 
      7.612125741114 
      7.611169473662 
      7.619828791763 
      7.611169473662 
      7.619828791763 
      7.618926886288 
      7.626833367487 
      7.618926886288 
      7.626833367487 
      7.626071488992 
      7.632409461637 
      7.626071488992 
      7.632409461637 
      7.631855088606 
      7.635959799448 
      7.631855088606 
      7.635959799448 
      7.635634617883 
      7.637060773414 
      7.635634617883 
      7.637060773414 
      7.637060773414 
      7.635634617883 
      7.637060773414 
      7.635634617883 
      7.635959799448 
      7.631855088606 
      7.635959799448 
      7.631855088606 
      7.632409461637 
      7.626071488992 
      7.632409461637 
      7.626071488992 
      7.626833367487 
      7.618926886288 
      7.626833367487 
      7.618926886288 
      7.619828791763 
      7.611169473662 
      7.619828791763 
      7.611169473662 
      7.612125741114 
      7.603581963304 
      7.612125741114 
      7.603581963304 
      7.604502535626 
      7.596888370084 
      7.604502535626 
      7.596888370084 
      7.597667979329 
      7.591755343229 
      7.597667979329 
      7.591755343229 
      7.592375659274 
      7.588326000223 
      7.592375659274 
      7.588326000223 
      7.588477470813 
      7.588549187820 
      7.588477470813 
      7.588549187820 
SCALARS  HU  double
LOOKUP_TABLE default
     -0.001140191538 
     -0.161347182946 
     -0.001140191538 
     -0.161347182946 
     -0.166093722181 
     -0.315181382045 
     -0.166093722181 
     -0.315181382045 
     -0.317398038599 
     -0.434001848014 
     -0.317398038599 
     -0.434001848014 
     -0.435927685706 
     -0.510390408373 
     -0.435927685706 
     -0.510390408373 
     -0.511214188085 
     -0.536161928013 
     -0.511214188085 
     -0.536161928013 
     -0.535959906551 
     -0.509404886282 
     -0.535959906551 
     -0.509404886282 
     -0.508185987173 
     -0.433047533606 
     -0.508185987173 
     -0.433047533606 
     -0.430955201858 
     -0.314794940543 
     -0.430955201858 
     -0.314794940543 
     -0.312077160851 
     -0.166182529718 
     -0.312077160851 
     -0.166182529718 
     -0.163361393523 
     -0.001347163692 
     -0.163361393523 
     -0.001347163692 
      0.001347163692 
      0.163361393523 
      0.001347163692 
      0.163361393523 
      0.166182529718 
      0.312077160851 
      0.166182529718 
      0.312077160851 
      0.314794940543 
      0.430955201858 
      0.314794940543 
      0.430955201858 
      0.433047533606 
      0.508185987173 
      0.433047533606 
      0.508185987173 
      0.509404886282 
      0.535959906551 
      0.509404886282 
      0.535959906551 
      0.536161928013 
      0.511214188085 
      0.536161928013 
      0.511214188085 
      0.510390408373 
      0.435927685706 
      0.510390408373 
      0.435927685706 
      0.434001848014 
      0.317398038599 
      0.434001848014 
      0.317398038599 
      0.315181382045 
      0.166093722181 
      0.315181382045 
      0.166093722181 
      0.161347182946 
      0.001140191538 
      0.161347182946 
      0.001140191538 
     -0.001140191538 
     -0.161347182946 
     -0.001140191538 
     -0.161347182946 
     -0.166093722181 
     -0.315181382045 
     -0.166093722181 
     -0.315181382045 
     -0.317398038599 
     -0.434001848014 
     -0.317398038599 
     -0.434001848014 
     -0.435927685706 
     -0.510390408373 
     -0.435927685706 
     -0.510390408373 
     -0.511214188085 
     -0.536161928013 
     -0.511214188085 
     -0.536161928013 
     -0.535959906551 
     -0.509404886282 
     -0.535959906551 
     -0.509404886282 
     -0.508185987173 
     -0.433047533606 
     -0.508185987173 
     -0.433047533606 
     -0.430955201858 
     -0.314794940543 
     -0.430955201858 
     -0.314794940543 
     -0.312077160851 
     -0.166182529718 
     -0.312077160851 
     -0.166182529718 
     -0.163361393523 
     -0.001347163692 
     -0.163361393523 
     -0.001347163692 
      0.001347163692 
      0.163361393523 
      0.001347163692 
      0.163361393523 
      0.166182529718 
      0.312077160851 
      0.166182529718 
      0.312077160851 
      0.314794940543 
      0.430955201858 
      0.314794940543 
      0.430955201858 
      0.433047533606 
      0.508185987173 
      0.433047533606 
      0.508185987173 
      0.509404886282 
      0.535959906551 
      0.509404886282 
      0.535959906551 
      0.536161928013 
      0.511214188085 
      0.536161928013 
      0.511214188085 
      0.510390408373 
      0.435927685706 
      0.510390408373 
      0.435927685706 
      0.434001848014 
      0.317398038599 
      0.434001848014 
      0.317398038599 
      0.315181382045 
      0.166093722181 
      0.315181382045 
      0.166093722181 
      0.161347182946 
      0.001140191538 
      0.161347182946 
      0.001140191538 
SCALARS  HV  double
LOOKUP_TABLE default
      0.000000000000 
      0.000000000000 
      0.000000000000 
      0.000000000000 
      0.000000000000 
      0.000000000000 
      0.000000000000 
     -0.000000000000 
      0.000000000000 
      0.000000000000 
     -0.000000000000 
     -0.000000000000 
      0.000000000000 
     -0.000000000000 
     -0.000000000000 
     -0.000000000000 
      0.000000000000 
     -0.000000000000 
      0.000000000000 
      0.000000000000 
     -0.000000000000 
      0.000000000000 
      0.000000000000 
     -0.000000000000 
      0.000000000000 
     -0.000000000000 
     -0.000000000000 
     -0.000000000000 
      0.000000000000 
      0.000000000000 
     -0.000000000000 
      0.000000000000 
      0.000000000000 
     -0.000000000000 
      0.000000000000 
      0.000000000000 
     -0.000000000000 
      0.000000000000 
      0.000000000000 
      0.000000000000 
      0.000000000000 
      0.000000000000 
      0.000000000000 
     -0.000000000000 
      0.000000000000 
     -0.000000000000 
     -0.000000000000 
     -0.000000000000 
     -0.000000000000 
      0.000000000000 
     -0.000000000000 
      0.000000000000 
     -0.000000000000 
      0.000000000000 
     -0.000000000000 
     -0.000000000000 
      0.000000000000 
      0.000000000000 
     -0.000000000000 
      0.000000000000 
      0.000000000000 
      0.000000000000 
      0.000000000000 
     -0.000000000000 
      0.000000000000 
      0.000000000000 
     -0.000000000000 
     -0.000000000000 
      0.000000000000 
      0.000000000000 
     -0.000000000000 
      0.000000000000 
      0.000000000000 
      0.000000000000 
      0.000000000000 
     -0.000000000000 
      0.000000000000 
      0.000000000000 
     -0.000000000000 
      0.000000000000 
      0.000000000000 
      0.000000000000 
     -0.000000000000 
     -0.000000000000 
      0.000000000000 
      0.000000000000 
     -0.000000000000 
      0.000000000000 
      0.000000000000 
     -0.000000000000 
      0.000000000000 
     -0.000000000000 
     -0.000000000000 
     -0.000000000000 
      0.000000000000 
      0.000000000000 
     -0.000000000000 
      0.000000000000 
      0.000000000000 
     -0.000000000000 
      0.000000000000 
      0.000000000000 
     -0.000000000000 
     -0.000000000000 
      0.000000000000 
     -0.000000000000 
     -0.000000000000 
     -0.000000000000 
     -0.000000000000 
      0.000000000000 
      0.000000000000 
      0.000000000000 
      0.000000000000 
     -0.000000000000 
      0.000000000000 
      0.000000000000 
     -0.000000000000 
      0.000000000000 
      0.000000000000 
      0.000000000000 
      0.000000000000 
      0.000000000000 
      0.000000000000 
      0.000000000000 
      0.000000000000 
     -0.000000000000 
     -0.000000000000 
     -0.000000000000 
     -0.000000000000 
      0.000000000000 
     -0.000000000000 
     -0.000000000000 
      0.000000000000 
      0.000000000000 
     -0.000000000000 
     -0.000000000000 
      0.000000000000 
     -0.000000000000 
     -0.000000000000 
      0.000000000000 
     -0.000000000000 
     -0.000000000000 
     -0.000000000000 
      0.000000000000 
     -0.000000000000 
      0.000000000000 
      0.000000000000 
     -0.000000000000 
      0.000000000000 
      0.000000000000 
     -0.000000000000 
      0.000000000000 
      0.000000000000 
      0.000000000000 
      0.000000000000 
      0.000000000000 
      0.000000000000 
      0.000000000000 
      0.000000000000 
      0.000000000000 
SCALARS  HW  double
LOOKUP_TABLE default
      0.606385542926 
      0.629567450397 
      0.606385542926 
      0.629567450397 
      0.620327468689 
      0.521694780241 
      0.620327468689 
      0.521694780241 
      0.514616979624 
      0.379233363732 
      0.514616979624 
      0.379233363732 
      0.372223900924 
      0.195896514660 
      0.372223900924 
      0.195896514660 
      0.191066948338 
     -0.004658108184 
      0.191066948338 
     -0.004658108184 
     -0.006878439516 
     -0.203609910057 
     -0.006878439516 
     -0.203609910057 
     -0.203140723714 
     -0.381422969799 
     -0.203140723714 
     -0.381422969799 
     -0.378838162343 
     -0.521209057351 
     -0.378838162343 
     -0.521209057351 
     -0.517444104097 
     -0.610762544180 
     -0.517444104097 
     -0.610762544180 
     -0.606799782789 
     -0.640017118084 
     -0.606799782789 
     -0.640017118084 
     -0.640017118084 
     -0.606799782789 
     -0.640017118084 
     -0.606799782789 
     -0.610762544180 
     -0.517444104097 
     -0.610762544180 
     -0.517444104097 
     -0.521209057351 
     -0.378838162343 
     -0.521209057351 
     -0.378838162343 
     -0.381422969799 
     -0.203140723714 
     -0.381422969799 
     -0.203140723714 
     -0.203609910057 
     -0.006878439516 
     -0.203609910057 
     -0.006878439516 
     -0.004658108184 
      0.191066948338 
     -0.004658108184 
      0.191066948338 
      0.195896514660 
      0.372223900924 
      0.195896514660 
      0.372223900924 
      0.379233363732 
      0.514616979624 
      0.379233363732 
      0.514616979624 
      0.521694780241 
      0.620327468689 
      0.521694780241 
      0.620327468689 
      0.629567450397 
      0.606385542926 
      0.629567450397 
      0.606385542926 
      0.606385542926 
      0.629567450397 
      0.606385542926 
      0.629567450397 
      0.620327468689 
      0.521694780241 
      0.620327468689 
      0.521694780241 
      0.514616979624 
      0.379233363732 
      0.514616979624 
      0.379233363732 
      0.372223900924 
      0.195896514660 
      0.372223900924 
      0.195896514660 
      0.191066948338 
     -0.004658108184 
      0.191066948338 
     -0.004658108184 
     -0.006878439516 
     -0.203609910057 
     -0.006878439516 
     -0.203609910057 
     -0.203140723714 
     -0.381422969799 
     -0.203140723714 
     -0.381422969799 
     -0.378838162343 
     -0.521209057351 
     -0.378838162343 
     -0.521209057351 
     -0.517444104097 
     -0.610762544180 
     -0.517444104097 
     -0.610762544180 
     -0.606799782789 
     -0.640017118084 
     -0.606799782790 
     -0.640017118084 
     -0.640017118084 
     -0.606799782789 
     -0.640017118084 
     -0.606799782789 
     -0.610762544180 
     -0.517444104097 
     -0.610762544180 
     -0.517444104097 
     -0.521209057351 
     -0.378838162343 
     -0.521209057351 
     -0.378838162343 
     -0.381422969799 
     -0.203140723714 
     -0.381422969799 
     -0.203140723714 
     -0.203609910057 
     -0.006878439516 
     -0.203609910057 
     -0.006878439516 
     -0.004658108184 
      0.191066948338 
     -0.004658108184 
      0.191066948338 
      0.195896514660 
      0.372223900924 
      0.195896514660 
      0.372223900924 
      0.379233363732 
      0.514616979624 
      0.379233363732 
      0.514616979624 
      0.521694780241 
      0.620327468689 
      0.521694780241 
      0.620327468689 
      0.629567450397 
      0.606385542926 
      0.629567450397 
      0.606385542926 
SCALARS  q  double
LOOKUP_TABLE default
      0.138310176679 
      0.144148739034 
      0.138310176679 
      0.144148739034 
      0.141487194353 
      0.122810017032 
      0.141487194353 
      0.122810017032 
      0.120135968282 
      0.092898973409 
      0.120135968282 
      0.092898973409 
      0.089786097521 
      0.053909055564 
      0.089786097521 
      0.053909055564 
      0.050795793415 
      0.009975746279 
      0.050795793415 
      0.009975746279 
      0.007147648599 
     -0.034723485569 
      0.007147648599 
     -0.034723485569 
     -0.036983855655 
     -0.075691556530 
     -0.036983855655 
     -0.075691556530 
     -0.077165012290 
     -0.108689688252 
     -0.077165012290 
     -0.108689688252 
     -0.109250087176 
     -0.130214755669 
     -0.109250087176 
     -0.130214755669 
     -0.129897291672 
     -0.137390432582 
     -0.129897291672 
     -0.137390432582 
     -0.137390432582 
     -0.129897291672 
     -0.137390432582 
     -0.129897291672 
     -0.130214755669 
     -0.109250087176 
     -0.130214755669 
     -0.109250087176 
     -0.108689688252 
     -0.077165012290 
     -0.108689688252 
     -0.077165012290 
     -0.075691556530 
     -0.036983855655 
     -0.075691556530 
     -0.036983855655 
     -0.034723485570 
      0.007147648599 
     -0.034723485570 
      0.007147648599 
      0.009975746279 
      0.050795793415 
      0.009975746279 
      0.050795793415 
      0.053909055564 
      0.089786097521 
      0.053909055564 
      0.089786097521 
      0.092898973409 
      0.120135968282 
      0.092898973409 
      0.120135968282 
      0.122810017032 
      0.141487194353 
      0.122810017032 
      0.141487194353 
      0.144148739034 
      0.138310176679 
      0.144148739034 
      0.138310176679 
      0.138310176679 
      0.144148739034 
      0.138310176679 
      0.144148739034 
      0.141487194353 
      0.122810017032 
      0.141487194353 
      0.122810017032 
      0.120135968282 
      0.092898973409 
      0.120135968282 
      0.092898973409 
      0.089786097521 
      0.053909055564 
      0.089786097521 
      0.053909055564 
      0.050795793415 
      0.009975746279 
      0.050795793415 
      0.009975746279 
      0.007147648599 
     -0.034723485569 
      0.007147648599 
     -0.034723485569 
     -0.036983855655 
     -0.075691556530 
     -0.036983855655 
     -0.075691556530 
     -0.077165012290 
     -0.108689688252 
     -0.077165012290 
     -0.108689688252 
     -0.109250087176 
     -0.130214755669 
     -0.109250087176 
     -0.130214755669 
     -0.129897291672 
     -0.137390432582 
     -0.129897291672 
     -0.137390432582 
     -0.137390432582 
     -0.129897291672 
     -0.137390432582 
     -0.129897291672 
     -0.130214755669 
     -0.109250087176 
     -0.130214755669 
     -0.109250087176 
     -0.108689688252 
     -0.077165012290 
     -0.108689688252 
     -0.077165012290 
     -0.075691556530 
     -0.036983855655 
     -0.075691556530 
     -0.036983855655 
     -0.034723485570 
      0.007147648599 
     -0.034723485570 
      0.007147648599 
      0.009975746279 
      0.050795793415 
      0.009975746279 
      0.050795793415 
      0.053909055564 
      0.089786097521 
      0.053909055564 
      0.089786097521 
      0.092898973409 
      0.120135968282 
      0.092898973409 
      0.120135968282 
      0.122810017032 