# vtk DataFile Version 2.0
NDG-FEM NonhydrostaticStandingWave2d Simulation
ASCII
DATASET UNSTRUCTURED_GRID

POINTS 405 double
0.00000000000000000000  0.00000000000000000000  0.00000000000000000000
1.00000000000000000000  0.00000000000000000000  0.00000000000000000000
2.00000000000000000000  0.00000000000000000000  0.00000000000000000000
0.00000000000000000000  1.00000000000000000000  0.00000000000000000000
1.00000000000000000000  1.00000000000000000000  0.00000000000000000000
2.00000000000000000000  1.00000000000000000000  0.00000000000000000000
0.00000000000000000000  2.00000000000000000000  0.00000000000000000000
1.00000000000000000000  2.00000000000000000000  0.00000000000000000000
2.00000000000000000000  2.00000000000000000000  0.00000000000000000000
2.00000000000000000000  0.00000000000000000000  0.00000000000000000000
3.00000000000000000000  0.00000000000000000000  0.00000000000000000000
4.00000000000000000000  0.00000000000000000000  0.00000000000000000000
2.00000000000000000000  1.00000000000000000000  0.00000000000000000000
3.00000000000000000000  1.00000000000000000000  0.00000000000000000000
4.00000000000000000000  1.00000000000000000000  0.00000000000000000000
2.00000000000000000000  2.00000000000000000000  0.00000000000000000000
3.00000000000000000000  2.00000000000000000000  0.00000000000000000000
4.00000000000000000000  2.00000000000000000000  0.00000000000000000000
4.00000000000000000000  0.00000000000000000000  0.00000000000000000000
5.00000000000000000000  0.00000000000000000000  0.00000000000000000000
6.00000000000000000000  0.00000000000000000000  0.00000000000000000000
4.00000000000000000000  1.00000000000000000000  0.00000000000000000000
5.00000000000000000000  1.00000000000000000000  0.00000000000000000000
6.00000000000000000000  1.00000000000000000000  0.00000000000000000000
4.00000000000000000000  2.00000000000000000000  0.00000000000000000000
5.00000000000000000000  2.00000000000000000000  0.00000000000000000000
6.00000000000000000000  2.00000000000000000000  0.00000000000000000000
6.00000000000000000000  0.00000000000000000000  0.00000000000000000000
7.00000000000000000000  0.00000000000000000000  0.00000000000000000000
8.00000000000000000000  0.00000000000000000000  0.00000000000000000000
6.00000000000000000000  1.00000000000000000000  0.00000000000000000000
7.00000000000000000000  1.00000000000000000000  0.00000000000000000000
8.00000000000000000000  1.00000000000000000000  0.00000000000000000000
6.00000000000000000000  2.00000000000000000000  0.00000000000000000000
7.00000000000000000000  2.00000000000000000000  0.00000000000000000000
8.00000000000000000000  2.00000000000000000000  0.00000000000000000000
8.00000000000000000000  0.00000000000000000000  0.00000000000000000000
9.00000000000000000000  0.00000000000000000000  0.00000000000000000000
10.00000000000000000000  0.00000000000000000000  0.00000000000000000000
8.00000000000000000000  1.00000000000000000000  0.00000000000000000000
9.00000000000000000000  1.00000000000000000000  0.00000000000000000000
10.00000000000000000000  1.00000000000000000000  0.00000000000000000000
8.00000000000000000000  2.00000000000000000000  0.00000000000000000000
9.00000000000000000000  2.00000000000000000000  0.00000000000000000000
10.00000000000000000000  2.00000000000000000000  0.00000000000000000000
10.00000000000000000000  0.00000000000000000000  0.00000000000000000000
11.00000000000000000000  0.00000000000000000000  0.00000000000000000000
12.00000000000000000000  0.00000000000000000000  0.00000000000000000000
10.00000000000000000000  1.00000000000000000000  0.00000000000000000000
11.00000000000000000000  1.00000000000000000000  0.00000000000000000000
12.00000000000000000000  1.00000000000000000000  0.00000000000000000000
10.00000000000000000000  2.00000000000000000000  0.00000000000000000000
11.00000000000000000000  2.00000000000000000000  0.00000000000000000000
12.00000000000000000000  2.00000000000000000000  0.00000000000000000000
12.00000000000000000000  0.00000000000000000000  0.00000000000000000000
13.00000000000000000000  0.00000000000000000000  0.00000000000000000000
14.00000000000000000000  0.00000000000000000000  0.00000000000000000000
12.00000000000000000000  1.00000000000000000000  0.00000000000000000000
13.00000000000000000000  1.00000000000000000000  0.00000000000000000000
14.00000000000000000000  1.00000000000000000000  0.00000000000000000000
12.00000000000000000000  2.00000000000000000000  0.00000000000000000000
13.00000000000000000000  2.00000000000000000000  0.00000000000000000000
14.00000000000000000000  2.00000000000000000000  0.00000000000000000000
14.00000000000000000000  0.00000000000000000000  0.00000000000000000000
15.00000000000000000000  0.00000000000000000000  0.00000000000000000000
16.00000000000000000000  0.00000000000000000000  0.00000000000000000000
14.00000000000000000000  1.00000000000000000000  0.00000000000000000000
15.00000000000000000000  1.00000000000000000000  0.00000000000000000000
16.00000000000000000000  1.00000000000000000000  0.00000000000000000000
14.00000000000000000000  2.00000000000000000000  0.00000000000000000000
15.00000000000000000000  2.00000000000000000000  0.00000000000000000000
16.00000000000000000000  2.00000000000000000000  0.00000000000000000000
16.00000000000000000000  0.00000000000000000000  0.00000000000000000000
17.00000000000000000000  0.00000000000000000000  0.00000000000000000000
18.00000000000000000000  0.00000000000000000000  0.00000000000000000000
16.00000000000000000000  1.00000000000000000000  0.00000000000000000000
17.00000000000000000000  1.00000000000000000000  0.00000000000000000000
18.00000000000000000000  1.00000000000000000000  0.00000000000000000000
16.00000000000000000000  2.00000000000000000000  0.00000000000000000000
17.00000000000000000000  2.00000000000000000000  0.00000000000000000000
18.00000000000000000000  2.00000000000000000000  0.00000000000000000000
18.00000000000000000000  0.00000000000000000000  0.00000000000000000000
19.00000000000000000000  0.00000000000000000000  0.00000000000000000000
20.00000000000000000000  0.00000000000000000000  0.00000000000000000000
18.00000000000000000000  1.00000000000000000000  0.00000000000000000000
19.00000000000000000000  1.00000000000000000000  0.00000000000000000000
20.00000000000000000000  1.00000000000000000000  0.00000000000000000000
18.00000000000000000000  2.00000000000000000000  0.00000000000000000000
19.00000000000000000000  2.00000000000000000000  0.00000000000000000000
20.00000000000000000000  2.00000000000000000000  0.00000000000000000000
20.00000000000000000000  0.00000000000000000000  0.00000000000000000000
21.00000000000000000000  0.00000000000000000000  0.00000000000000000000
22.00000000000000000000  0.00000000000000000000  0.00000000000000000000
20.00000000000000000000  1.00000000000000000000  0.00000000000000000000
21.00000000000000000000  1.00000000000000000000  0.00000000000000000000
22.00000000000000000000  1.00000000000000000000  0.00000000000000000000
20.00000000000000000000  2.00000000000000000000  0.00000000000000000000
21.00000000000000000000  2.00000000000000000000  0.00000000000000000000
22.00000000000000000000  2.00000000000000000000  0.00000000000000000000
22.00000000000000000000  0.00000000000000000000  0.00000000000000000000
23.00000000000000000000  0.00000000000000000000  0.00000000000000000000
24.00000000000000000000  0.00000000000000000000  0.00000000000000000000
22.00000000000000000000  1.00000000000000000000  0.00000000000000000000
23.00000000000000000000  1.00000000000000000000  0.00000000000000000000
24.00000000000000000000  1.00000000000000000000  0.00000000000000000000
22.00000000000000000000  2.00000000000000000000  0.00000000000000000000
23.00000000000000000000  2.00000000000000000000  0.00000000000000000000
24.00000000000000000000  2.00000000000000000000  0.00000000000000000000
24.00000000000000000000  0.00000000000000000000  0.00000000000000000000
25.00000000000000000000  0.00000000000000000000  0.00000000000000000000
26.00000000000000000000  0.00000000000000000000  0.00000000000000000000
24.00000000000000000000  1.00000000000000000000  0.00000000000000000000
25.00000000000000000000  1.00000000000000000000  0.00000000000000000000
26.00000000000000000000  1.00000000000000000000  0.00000000000000000000
24.00000000000000000000  2.00000000000000000000  0.00000000000000000000
25.00000000000000000000  2.00000000000000000000  0.00000000000000000000
26.00000000000000000000  2.00000000000000000000  0.00000000000000000000
26.00000000000000000000  0.00000000000000000000  0.00000000000000000000
27.00000000000000000000  0.00000000000000000000  0.00000000000000000000
28.00000000000000000000  0.00000000000000000000  0.00000000000000000000
26.00000000000000000000  1.00000000000000000000  0.00000000000000000000
27.00000000000000000000  1.00000000000000000000  0.00000000000000000000
28.00000000000000000000  1.00000000000000000000  0.00000000000000000000
26.00000000000000000000  2.00000000000000000000  0.00000000000000000000
27.00000000000000000000  2.00000000000000000000  0.00000000000000000000
28.00000000000000000000  2.00000000000000000000  0.00000000000000000000
28.00000000000000000000  0.00000000000000000000  0.00000000000000000000
29.00000000000000000000  0.00000000000000000000  0.00000000000000000000
30.00000000000000000000  0.00000000000000000000  0.00000000000000000000
28.00000000000000000000  1.00000000000000000000  0.00000000000000000000
29.00000000000000000000  1.00000000000000000000  0.00000000000000000000
30.00000000000000000000  1.00000000000000000000  0.00000000000000000000
28.00000000000000000000  2.00000000000000000000  0.00000000000000000000
29.00000000000000000000  2.00000000000000000000  0.00000000000000000000
30.00000000000000000000  2.00000000000000000000  0.00000000000000000000
0.00000000000000000000  2.00000000000000000000  0.00000000000000000000
1.00000000000000000000  2.00000000000000000000  0.00000000000000000000
[...]
POINT_DATA 405
SCALARS  H  double
LOOKUP_TABLE default
      7.641383154675 
      7.640025373081 
      7.636082614919 
      7.641314645322 
      7.640025240121 
      7.636063655177 
      7.641272213773 
      7.640033532691 
      7.636063746678 
      7.636053109927 
      7.630026207401 
      7.621860896516 
      7.636052839411 
      7.630033231176 
      7.621851027543 
      7.636050943385 
      7.630033875661 
      7.621848127547 
      7.622065806887 
      7.612859569620 
      7.603253137952 
      7.622058754773 
      7.612860838378 
      7.603252469001 
      7.622052715481 
      7.612863233696 
      7.603253754016 
      7.603529941054 
      7.594430741129 
      7.587229657195 
      7.603530640539 
      7.594428268645 
      7.587228166952 
      7.603531414686 
      7.594421445989 
      7.587228181109 
      7.587450806548 
      7.582325934561 
      7.580940786507 
      7.587450396652 
      7.582328458251 
      7.580939669771 
      7.587451955285 
      7.582333775883 
      7.580937800679 
      7.580940194345 
      7.582384295577 
      7.587549047632 
      7.580938352840 
      7.582382957592 
      7.587549785382 
      7.580934343235 
      7.582380059226 
      7.587553065393 
      7.587326131479 
      7.594573151466 
      7.603684672370 
      7.587327518003 
      7.594573620124 
      7.603683563228 
      7.587332307815 
      7.594574175931 
      7.603681101863 
      7.603403492924 
      7.612940822690 
      7.622064619729 
      7.603402216595 
      7.612941167795 
      7.622065212071 
      7.603399589548 
      7.612942129424 
      7.622066365384 
      7.621865238026 
      7.630028758076 
      7.636033329861 
      7.621865513982 
      7.630027991810 
      7.636033125503 
      7.621865893318 
      7.630026176724 
      7.636033772502 
      7.635938257258 
      7.640072765543 
      7.641193786493 
      7.635938511227 
      7.640074586788 
      7.641191643358 
      7.635939989313 
      7.640077979941 
      7.641187693011 
      7.641192236723 
      7.640131243259 
      7.636019117660 
      7.641189620196 
      7.640128955312 
      7.636025826981 
      7.641184992984 
      7.640123389115 
      7.636034291474 
      7.636114482554 
      7.630136218358 
      7.621985042370 
      7.636120717281 
      7.630136750588 
      7.621978536014 
      7.636127846246 
      7.630141396603 
      7.621970187228 
      7.622187616791 
      7.613039137763 
      7.603447437525 
      7.622181930854 
      7.613036358470 
      7.603446489157 
      7.622176066928 
      7.613025372543 
      7.603441368361 
      7.603725123914 
      7.594588023041 
      7.587319869512 
      7.603723339949 
      7.594588368378 
      7.587326108817 
      7.603718717880 
      7.594588113822 
      7.587349965612 
      7.587422236629 
      7.582429078657 
      7.580793936960 
      7.587429327933 
      7.582431649447 
      7.580782402617 
      7.587490767308 
      7.582419162370 
      7.580927270866 
      7.641239374293 
      7.640046577166 
      7.636045827869 
      7.641210885728 
      7.640043661138 
      7.636027520045 
      7.641349060433 
      7.640016193551 
      7.636094093694 
      7.636042672936 
      7.630033391317 
      7.621848022207 
      7.636046726029 
      7.630035971509 
      7.621853616755 
      7.636077394138 
      7.630037219410 
      7.621851245854 
      7.622052237496 
      7.612863374309 
      7.603254244375 
      7.622057030054 
      7.612864169668 
      7.603254197142 
      7.622058907905 
      7.612861299423 
      7.603254003038 
      7.603531748238 
      7.594421629551 
      7.587227331871 
      7.603532875501 
      7.594418050472 
      7.587225669995 
      7.603535823259 
      7.594422130845 
      7.587221056305 
      7.587450681180 
      7.582333566357 
      7.580938461564 
      7.587450150238 
      7.582334731263 
      7.580936055579 
      7.587444774299 
      7.582329314585 
      7.580935601589 
      7.580935104637 
      7.582380113619 
      7.587552730495 
      7.580931327509 
      7.582379899471 
      7.587556003138 
      7.580931174928 
      7.582382943603 
      7.587557972368 
      7.587331868294 
      7.594574178752 
      7.603681270324 
      7.587336044019 
      7.594573584217 
      7.603679147094 
      7.587338187084 
      7.594571878076 
      7.603677628318 
      7.603399738636 
      7.612942087062 
      7.622066339805 
      7.603397837185 
      7.612943608219 
      7.622066288841 
      7.603397017871 
      7.612945669383 
      7.622064918425 
      7.621865873079 
      7.630026187768 
      7.636034034032 
      7.621865137978 
      7.630024569147 
      7.636035799051 
      7.621863017124 
      7.630023189104 
      7.636039530095 
      7.635940218319 
      7.640077658700 
      7.641187440838 
      7.635942373060 
      7.640080308933 
      7.641184675898 
      7.635945423626 
      7.640081505728 
      7.641182878926 
      7.641185091925 
      7.640124108907 
      7.636033632876 
      7.641182794427 
      7.640119734745 
      7.636028861701 
      7.641182300676 
      7.640117135962 
      7.636021105929 
      7.636127260488 
      7.630140627515 
      7.621970031245 
      7.636121877523 
      7.630144950308 
      7.621983882694 
      7.636114391789 
      7.630142869710 
      7.621997884032 
      7.622175273103 
      7.613026872897 
      7.603442692105 
      7.622186085371 
      7.613020020301 
      7.603428916174 
      7.622198454570 
      7.613028327425 
      7.603426277005 
      7.603719053025 
      7.594591419314 
      7.587348930412 
      7.603710481978 
      7.594587705361 
      7.587349777076 
      7.603713432033 
      7.594585084648 
      7.587347017065 
      7.587496367874 
      7.582417079787 
      7.580942833571 
      7.587491160457 
      7.582446962447 
      7.580859999842 
      7.587499914419 
      7.582441613792 
      7.580846851615 
      7.641322883940 
      7.640023398966 
      7.636083915534 
      7.641305298819 
      7.640035347481 
      7.636058767045 
      7.641437110537 
      7.639994152389 
      7.636123477506 
      7.636076954343 
      7.630041022433 
      7.621848672877 
      7.636069310916 
      7.630036865611 
      7.621847807252 
      7.636111824812 
      7.630021704762 
      7.621858608730 
      7.622057614032 
      7.612861247068 
      7.603252405566 
      7.622055726183 
      7.612856810050 
      7.603257921379 
      7.622066572747 
      7.612854305406 
      7.603261560674 
      7.603533827574 
      7.594422222904 
      7.587222178929 
      7.603540457326 
      7.594429220863 
      7.587217664278 
      7.603547593632 
      7.594432183215 
      7.587215186287 
      7.587446030843 
      7.582329651643 
      7.580934876182 
      7.587438909797 
      7.582321060679 
      7.580936929683 
      7.587436083032 
      7.582317418435 
      7.580937552917 
      7.580930318051 
      7.582382799598 
      7.587558144901 
      7.580933504437 
      7.582386557935 
      7.587559273075 
      7.580935301448 
      7.582388191417 
      7.587559237795 
      7.587338341527 
      7.594571909539 
      7.603677691468 
      7.587339484765 
      7.594569974857 
      7.603676416757 
      7.587339631251 
      7.594569293612 
      7.603675681694 
      7.603397013405 
      7.612945558980 
      7.622064966036 
      7.603396710518 
      7.612947804297 
      7.622063119313 
      7.603396446758 
      7.612948790850 
      7.622062161166 
      7.621863136975 
      7.630023307155 
      7.636039213839 
      7.621860359651 
      7.630021867287 
      7.636045347115 
      7.621859018773 
      7.630021371273 
      7.636047905908 
      7.635945163057 
      7.640081500533 
      7.641183402162 
      7.635950032730 
      7.640080609934 
      7.641178836107 
      7.635952165517 
      7.640080099790 
      7.641176396637 
      7.641182560536 
      7.640116739177 
      7.636021136451 
      7.641180908627 
      7.640119100957 
      7.636014481459 
      7.641179548547 
      7.640121071177 
      7.636010780998 
      7.636114802640 
      7.630143684197 
      7.621997663841 
      7.636107302515 
      7.630136384154 
      7.622004893010 
      7.636102900463 
      7.630133027042 
      7.622009660502 
      7.622198257959 
      7.613028472320 
      7.603423258378 
      7.622203361290 
      7.613043173065 
      7.603434061303 
      7.622205804176 
      7.613047477610 
      7.603442082645 
      7.603710054589 
      7.594583141765 
      7.587340918187 
      7.603717083153 
      7.594587169035 
      7.587351386391 
      7.603724056573 
      7.594590171760 
      7.587344130758 
      7.587482354341 
      7.582453995643 
      7.580820550310 
      7.587509876209 
      7.582412446780 
      7.580969574351 
      7.587482153707 
      7.582421278451 
      7.580851544765 
SCALARS  HU  double
LOOKUP_TABLE default
     -0.001462627798 
      0.246875349397 
      0.471169850476 
     -0.001300444474 
      0.247092155200 
      0.470997225743 
     -0.001614925027 
      0.247072456259 
      0.471099302777 
      0.469733825459 
      0.651765733035 
      0.775006111113 
      0.469806711087 
      0.651755853841 
      0.774952575543 
      0.469741091585 
      0.651801310954 
      0.774932889662 
      0.774113732727 
      0.821659710778 
      0.791163029954 
      0.774064072400 
      0.821673577108 
      0.791157142380 
      0.774024985655 
      0.821691433549 
      0.791171401719 
      0.791918494420 
      0.678694114455 
      0.497172008390 
      0.791927218369 
      0.678678681358 
      0.497162371667 
      0.791933881869 
      0.678628892635 
      0.497158474646 
      0.499408762836 
      0.262155791937 
     -0.002327417649 
      0.499412074744 
      0.262173444365 
     -0.002336414001 
      0.499423854901 
      0.262209031497 
     -0.002350835238 
      0.000456529468 
     -0.263908051090 
     -0.500799001202 
      0.000441592255 
     -0.263916235836 
     -0.500791813153 
      0.000405466002 
     -0.263935542625 
     -0.500768363253 
     -0.498572732456 
     -0.679792038637 
     -0.792959077579 
     -0.498558980397 
     -0.679789292804 
     -0.792965190302 
     -0.498520017208 
     -0.679785697108 
     -0.792979010049 
     -0.792130084415 
     -0.822358674937 
     -0.774179411098 
     -0.792138632147 
     -0.822357684623 
     -0.774180811187 
     -0.792155448868 
     -0.822355941035 
     -0.774182995392 
     -0.775135886518 
     -0.651694474575 
     -0.469575869818 
     -0.775137586781 
     -0.651691354778 
     -0.469572394333 
     -0.775138739987 
     -0.651683011869 
     -0.469573152388 
     -0.471753298115 
     -0.246428688687 
      0.000379979531 
     -0.471754182749 
     -0.246442265689 
      0.000392526150 
     -0.471760825135 
     -0.246470237225 
      0.000416604164 
     -0.002240322143 
      0.244792597017 
      0.470530433592 
     -0.002221205950 
      0.244813351569 
      0.470491092965 
     -0.002190666625 
      0.244859684517 
      0.470433215520 
      0.468309837353 
      0.650775963561 
      0.774377699998 
      0.468288116695 
      0.650758232522 
      0.774411657021 
      0.468240014613 
      0.650718623179 
      0.774454998973 
      0.773447985774 
      0.821640231350 
      0.791691506299 
      0.773466052268 
      0.821668501429 
      0.791693128688 
      0.773488388853 
      0.821729315445 
      0.791738355005 
      0.792523547871 
      0.679574280499 
      0.498612619933 
      0.792525464211 
      0.679600851553 
      0.498537712226 
      0.792570641635 
      0.679620531487 
      0.498431457451 
      0.500068507696 
      0.264318482084 
     -0.001954027743 
      0.499976642580 
      0.264416898829 
     -0.001870435000 
      0.500116111014 
      0.264263105801 
     -0.001302638694 
     -0.001493641522 
      0.247041316341 
      0.471206037802 
     -0.001595815078 
      0.246816667919 
      0.471352208851 
     -0.001615786694 
      0.246901420993 
      0.471126546716 
      0.469669693244 
      0.651772809831 
      0.774933844195 
      0.469747696941 
      0.651786713522 
      0.774960451689 
      0.469892372100 
      0.651771803170 
      0.774913631419 
      0.774014514432 
      0.821693401428 
      0.791175173345 
      0.774032790563 
      0.821686449227 
      0.791173848814 
      0.774038451680 
      0.821663504717 
      0.791168939557 
      0.791936751115 
      0.678632190095 
      0.497153714492 
      0.791945623624 
      0.678609899312 
      0.497140163185 
      0.791971626122 
      0.678638133629 
      0.497106989481 
      0.499414706709 
      0.262207721393 
     -0.002346023326 
      0.499413396901 
      0.262213422064 
     -0.002361947481 
      0.499371585403 
      0.262175794410 
     -0.002362869579 
      0.000411295850 
     -0.263934993567 
     -0.500770933989 
      0.000382880106 
     -0.263934478014 
     -0.500751304840 
      0.000388196402 
     -0.263911222399 
     -0.500744746574 
     -0.498523725970 
     -0.679785366367 
     -0.792977726643 
     -0.498493321385 
     -0.679786147003 
     -0.792990024060 
     -0.498483329000 
     -0.679792185346 
     -0.792994589667 
     -0.792154424640 
     -0.822356602582 
     -0.774182964033 
     -0.792170147801 
     -0.822355617792 
     -0.774178408232 
     -0.792177746567 
     -0.822357331913 
     -0.774169008620 
     -0.775138207380 
     -0.651682862558 
     -0.469575232690 
     -0.775136658323 
     -0.651675536094 
     -0.469584886538 
     -0.775130555914 
     -0.651668335142 
     -0.469610633802 
     -0.471762286636 
     -0.246468191566 
      0.000420612464 
     -0.471773827336 
     -0.246490828772 
      0.000440605493 
     -0.471792606762 
     -0.246501624821 
      0.000454472528 
     -0.002189813796 
      0.244853656338 
      0.470438139235 
     -0.002172206703 
      0.244886634972 
      0.470471340530 
     -0.002165939554 
      0.244901733476 
      0.470530244297 
      0.468245500681 
      0.650722974533 
      0.774455805085 
      0.468279804095 
      0.650700942258 
      0.774351030690 
      0.468336427798 
      0.650723026531 
      0.774257803627 
      0.773491606406 
      0.821725938400 
      0.791721034871 
      0.773423993502 
      0.821762723520 
      0.791831349754 
      0.773344236064 
      0.821715461583 
      0.791864261970 
      0.792557004176 
      0.679598387320 
      0.498383439577 
      0.792621405632 
      0.679651184560 
      0.498468884154 
      0.792610383391 
      0.679629697515 
      0.498432239361 
      0.500141095260 
      0.264247174703 
     -0.001316937622 
      0.499972952853 
      0.264243793073 
     -0.001509330233 
      0.499952076537 
      0.264139623442 
     -0.001198880113 
     -0.001486780211 
      0.246917885011 
      0.471164373295 
     -0.000885689797 
      0.246907147091 
      0.471169521142 
     -0.001551798512 
      0.246790467309 
      0.471359750745 
      0.469918366748 
      0.651800986201 
      0.774901225578 
      0.469899532092 
      0.651750949743 
      0.774908661164 
      0.470114805548 
      0.651677410134 
      0.774958359333 
      0.774034700119 
      0.821665418027 
      0.791156977012 
      0.774018074750 
      0.821626298541 
      0.791197929292 
      0.774096602802 
      0.821602351536 
      0.791210149306 
      0.791954695625 
      0.678638566756 
      0.497115809692 
      0.792005789917 
      0.678685983438 
      0.497084036042 
      0.792050050904 
      0.678705818374 
      0.497068224663 
      0.499382396129 
      0.262177194243 
     -0.002366253892 
      0.499321654516 
      0.262118524346 
     -0.002352119111 
      0.499306345666 
      0.262092036468 
     -0.002345786346 
      0.000382496031 
     -0.263912300032 
     -0.500742800817 
      0.000411933448 
     -0.263883363293 
     -0.500744145680 
      0.000430417215 
     -0.263871074873 
     -0.500746938671 
     -0.498481573821 
     -0.679792011633 
     -0.792995634610 
     -0.498482327970 
     -0.679800085527 
     -0.792992834467 
     -0.498483469850 
     -0.679803142171 
     -0.792991251886 
     -0.792178735524 
     -0.822356859640 
     -0.774168323014 
     -0.792178067157 
     -0.822361416098 
     -0.774159936648 
     -0.792178024170 
     -0.822363739969 
     -0.774155154621 
     -0.775130445842 
     -0.651669743359 
     -0.469608300112 
     -0.775120986684 
     -0.651660206280 
     -0.469651456125 
     -0.775116489851 
     -0.651657111991 
     -0.469670319158 
     -0.471790518703 
     -0.246501346730 
      0.000450626267 
     -0.471820306980 
     -0.246499410530 
      0.000487624934 
     -0.471832699299 
     -0.246497731694 
      0.000508485200 
     -0.002167842410 
      0.244904141342 
      0.470531430760 
     -0.002157237005 
      0.244888123205 
      0.470577813830 
     -0.002148534918 
      0.244874109083 
      0.470599328988 
      0.468334978115 
      0.650716752184 
      0.774258745905 
      0.468387780094 
      0.650770583270 
      0.774211424352 
      0.468421897542 
      0.650792988721 
      0.774180797150 
      0.773341864855 
      0.821720543322 
      0.791875328777 
      0.773307216055 
      0.821635931049 
      0.791824903643 
      0.773307421982 
      0.821614593272 
      0.791792103183 
      0.792624840526 
      0.679660004223 
      0.498500402738 
      0.792600533069 
      0.679650814942 
      0.498376797406 
      0.792589212861 
      0.679624271260 
      0.498453986938 
      0.500007275809 
      0.264134252768 
     -0.001169654043 
      0.500167510394 
      0.264193762478 
     -0.001292467173 
      0.500011473527 
      0.264261841111 
     -0.001407004118 
SCALARS  HV  double
LOOKUP_TABLE default
     -0.000318357738 
      0.000068981004 
     -0.000156893829 
     -0.000441347244 
      0.000052281537 
     -0.000226829405 
      0.000817563762 
     -0.000095009439 
      0.000288512258 
     -0.000075979806 
      0.000003913540 
      0.000016210349 
     -0.000011329528 
      0.000025244593 
      0.000010982700 
      0.000036199250 
      0.000005094185 
      0.000032252115 
      0.000006536947 
     -0.000001626065 
     -0.000007995006 
      0.000001360617 
      0.000008710627 
      0.000023210901 
      0.000030440198 
      0.000022889107 
      0.000042465428 
     -0.000007869211 
      0.000003368986 
     -0.000000864134 
      0.000032430274 
      0.000001344505 
     -0.000022566376 
      0.000055083058 
      0.000011555031 
     -0.000024971309 
     -0.000002560673 
     -0.000001715952 
     -0.000000114181 
     -0.000029950787 
      0.000004523231 
      0.000015309177 
     -0.000034287727 
     -0.000002214123 
      0.000015638678 
     -0.000000290306 
      0.000001504579 
     -0.000000311857 
      0.000017472498 
     -0.000008836043 
     -0.000008716357 
      0.000019449952 
     -0.000011886646 
     -0.000010990055 
     -0.000001413912 
     -0.000000566959 
      0.000001364903 
     -0.000007545883 
      0.000006131550 
      0.000001150448 
     -0.000009349534 
      0.000008083892 
      0.000002634165 
      0.000001317936 
     -0.000000136955 
     -0.000000140778 
     -0.000001155869 
     -0.000002092068 
     -0.000001348456 
     -0.000000728019 
     -0.000003522160 
     -0.000004321364 
      0.000000005353 
      0.000000092270 
      0.000001177610 
     -0.000000481166 
      0.000000690049 
      0.000008805928 
     -0.000001868092 
      0.000003395383 
      0.000012638655 
      0.000000961894 
     -0.000001006679 
     -0.000001047407 
      0.000006868412 
     -0.000009027934 
     -0.000025898536 
      0.000008235003 
     -0.000016832367 
     -0.000029631971 
     -0.000000218400 
      0.000002677350 