# vtk DataFile Version 2.0
NDG-FEM NonhydrostaticStandingWave2d Simulation
ASCII
DATASET UNSTRUCTURED_GRID

POINTS 1350 double
0.00000000000000000000  0.00000000000000000000  0.00000000000000000000
1.00000000000000000000  0.00000000000000000000  0.00000000000000000000
2.00000000000000000000  0.00000000000000000000  0.00000000000000000000
0.00000000000000000000  1.00000000000000000000  0.00000000000000000000
1.00000000000000000000  1.00000000000000000000  0.00000000000000000000
2.00000000000000000000  1.00000000000000000000  0.00000000000000000000
0.00000000000000000000  2.00000000000000000000  0.00000000000000000000
1.00000000000000000000  2.00000000000000000000  0.00000000000000000000
2.00000000000000000000  2.00000000000000000000  0.00000000000000000000
2.00000000000000000000  0.00000000000000000000  0.00000000000000000000
3.00000000000000000000  0.00000000000000000000  0.00000000000000000000
4.00000000000000000000  0.00000000000000000000  0.00000000000000000000
2.00000000000000000000  1.00000000000000000000  0.00000000000000000000
3.00000000000000000000  1.00000000000000000000  0.00000000000000000000
4.00000000000000000000  1.00000000000000000000  0.00000000000000000000
2.00000000000000000000  2.00000000000000000000  0.00000000000000000000
3.00000000000000000000  2.00000000000000000000  0.00000000000000000000
4.00000000000000000000  2.00000000000000000000  0.00000000000000000000
4.00000000000000000000  0.00000000000000000000  0.00000000000000000000
5.00000000000000000000  0.00000000000000000000  0.00000000000000000000
6.00000000000000000000  0.00000000000000000000  0.00000000000000000000
4.00000000000000000000  1.00000000000000000000  0.00000000000000000000
5.00000000000000000000  1.00000000000000000000  0.00000000000000000000
6.00000000000000000000  1.00000000000000000000  0.00000000000000000000
4.00000000000000000000  2.00000000000000000000  0.00000000000000000000
5.00000000000000000000  2.00000000000000000000  0.00000000000000000000
6.00000000000000000000  2.00000000000000000000  0.00000000000000000000
6.00000000000000000000  0.00000000000000000000  0.00000000000000000000
7.00000000000000000000  0.00000000000000000000  0.00000000000000000000
8.00000000000000000000  0.00000000000000000000  0.00000000000000000000
6.00000000000000000000  1.00000000000000000000  0.00000000000000000000
7.00000000000000000000  1.00000000000000000000  0.00000000000000000000
8.00000000000000000000  1.00000000000000000000  0.00000000000000000000
6.00000000000000000000  2.00000000000000000000  0.00000000000000000000
7.00000000000000000000  2.00000000000000000000  0.00000000000000000000
8.00000000000000000000  2.00000000000000000000  0.00000000000000000000
8.00000000000000000000  0.00000000000000000000  0.00000000000000000000
9.00000000000000000000  0.00000000000000000000  0.00000000000000000000
10.00000000000000000000  0.00000000000000000000  0.00000000000000000000
8.00000000000000000000  1.00000000000000000000  0.00000000000000000000
9.00000000000000000000  1.00000000000000000000  0.00000000000000000000
10.00000000000000000000  1.00000000000000000000  0.00000000000000000000
8.00000000000000000000  2.00000000000000000000  0.00000000000000000000
9.00000000000000000000  2.00000000000000000000  0.00000000000000000000
10.00000000000000000000  2.00000000000000000000  0.00000000000000000000
10.00000000000000000000  0.00000000000000000000  0.00000000000000000000
11.00000000000000000000  0.00000000000000000000  0.00000000000000000000
12.00000000000000000000  0.00000000000000000000  0.00000000000000000000
10.00000000000000000000  1.00000000000000000000  0.00000000000000000000
11.00000000000000000000  1.00000000000000000000  0.00000000000000000000
12.00000000000000000000  1.00000000000000000000  0.00000000000000000000
10.00000000000000000000  2.00000000000000000000  0.00000000000000000000
11.00000000000000000000  2.00000000000000000000  0.00000000000000000000
12.00000000000000000000  2.00000000000000000000  0.00000000000000000000
12.00000000000000000000  0.00000000000000000000  0.00000000000000000000
13.00000000000000000000  0.00000000000000000000  0.00000000000000000000
14.00000000000000000000  0.00000000000000000000  0.00000000000000000000
12.00000000000000000000  1.00000000000000000000  0.00000000000000000000
13.00000000000000000000  1.00000000000000000000  0.00000000000000000000
14.00000000000000000000  1.00000000000000000000  0.00000000000000000000
12.00000000000000000000  2.00000000000000000000  0.00000000000000000000
13.00000000000000000000  2.00000000000000000000  0.00000000000000000000
14.00000000000000000000  2.00000000000000000000  0.00000000000000000000
14.00000000000000000000  0.00000000000000000000  0.00000000000000000000
15.00000000000000000000  0.00000000000000000000  0.00000000000000000000
16.00000000000000000000  0.00000000000000000000  0.00000000000000000000
14.00000000000000000000  1.00000000000000000000  0.00000000000000000000
15.00000000000000000000  1.00000000000000000000  0.00000000000000000000
16.00000000000000000000  1.00000000000000000000  0.00000000000000000000
14.00000000000000000000  2.00000000000000000000  0.00000000000000000000
15.00000000000000000000  2.00000000000000000000  0.00000000000000000000
16.00000000000000000000  2.00000000000000000000  0.00000000000000000000
16.00000000000000000000  0.00000000000000000000  0.00000000000000000000
17.00000000000000000000  0.00000000000000000000  0.00000000000000000000
18.00000000000000000000  0.00000000000000000000  0.00000000000000000000
16.00000000000000000000  1.00000000000000000000  0.00000000000000000000
17.00000000000000000000  1.00000000000000000000  0.00000000000000000000
18.00000000000000000000  1.00000000000000000000  0.00000000000000000000
16.00000000000000000000  2.00000000000000000000  0.00000000000000000000
17.00000000000000000000  2.00000000000000000000  0.00000000000000000000
18.00000000000000000000  2.00000000000000000000  0.00000000000000000000
18.00000000000000000000  0.00000000000000000000  0.00000000000000000000
19.00000000000000000000  0.00000000000000000000  0.00000000000000000000
20.00000000000000000000  0.00000000000000000000  0.00000000000000000000
18.00000000000000000000  1.00000000000000000000  0.00000000000000000000
19.00000000000000000000  1.00000000000000000000  0.00000000000000000000
20.00000000000000000000  1.00000000000000000000  0.00000000000000000000
18.00000000000000000000  2.00000000000000000000  0.00000000000000000000
19.00000000000000000000  2.00000000000000000000  0.00000000000000000000
20.00000000000000000000  2.00000000000000000000  0.00000000000000000000
20.00000000000000000000  0.00000000000000000000  0.00000000000000000000
21.00000000000000000000  0.00000000000000000000  0.00000000000000000000
22.00000000000000000000  0.00000000000000000000  0.00000000000000000000
20.00000000000000000000  1.00000000000000000000  0.00000000000000000000
21.00000000000000000000  1.00000000000000000000  0.00000000000000000000
22.00000000000000000000  1.00000000000000000000  0.00000000000000000000
20.00000000000000000000  2.00000000000000000000  0.00000000000000000000
21.00000000000000000000  2.00000000000000000000  0.00000000000000000000
22.00000000000000000000  2.00000000000000000000  0.00000000000000000000
22.00000000000000000000  0.00000000000000000000  0.00000000000000000000
23.00000000000000000000  0.00000000000000000000  0.00000000000000000000
24.00000000000000000000  0.00000000000000000000  0.00000000000000000000
22.00000000000000000000  1.00000000000000000000  0.00000000000000000000
23.00000000000000000000  1.00000000000000000000  0.00000000000000000000
24.00000000000000000000  1.00000000000000000000  0.00000000000000000000
22.00000000000000000000  2.00000000000000000000  0.00000000000000000000
23.00000000000000000000  2.00000000000000000000  0.00000000000000000000
24.00000000000000000000  2.00000000000000000000  0.00000000000000000000
24.00000000000000000000  0.00000000000000000000  0.00000000000000000000
25.00000000000000000000  0.00000000000000000000  0.00000000000000000000
26.00000000000000000000  0.00000000000000000000  0.00000000000000000000
24.00000000000000000000  1.00000000000000000000  0.00000000000000000000
25.00000000000000000000  1.00000000000000000000  0.00000000000000000000
26.00000000000000000000  1.00000000000000000000  0.00000000000000000000
24.00000000000000000000  2.00000000000000000000  0.00000000000000000000
25.00000000000000000000  2.00000000000000000000  0.00000000000000000000
26.00000000000000000000  2.00000000000000000000  0.00000000000000000000
26.00000000000000000000  0.00000000000000000000  0.00000000000000000000
27.00000000000000000000  0.00000000000000000000  0.00000000000000000000
28.00000000000000000000  0.00000000000000000000  0.00000000000000000000
26.00000000000000000000  1.00000000000000000000  0.00000000000000000000
27.00000000000000000000  1.00000000000000000000  0.00000000000000000000
28.00000000000000000000  1.00000000000000000000  0.00000000000000000000
26.00000000000000000000  2.00000000000000000000  0.00000000000000000000
27.00000000000000000000  2.00000000000000000000  0.00000000000000000000
28.00000000000000000000  2.00000000000000000000  0.00000000000000000000
28.00000000000000000000  0.00000000000000000000  0.00000000000000000000
29.00000000000000000000  0.00000000000000000000  0.00000000000000000000
30.00000000000000000000  0.00000000000000000000  0.00000000000000000000
28.00000000000000000000  1.00000000000000000000  0.00000000000000000000
29.00000000000000000000  1.00000000000000000000  0.00000000000000000000
30.00000000000000000000  1.00000000000000000000  0.00000000000000000000
28.00000000000000000000  2.00000000000000000000  0.00000000000000000000
29.00000000000000000000  2.00000000000000000000  0.00000000000000000000
30.00000000000000000000  2.00000000000000000000  0.00000000000000000000
30.00000000000000000000  0.00000000000000000000  0.00000000000000000000
31.00000000000000000000  0.00000000000000000000  0.00000000000000000000
[...]
POINT_DATA 1350
SCALARS  H  double
LOOKUP_TABLE default
      7.524448772787 
      7.524451167306 
      7.524458107529 
      7.524448768087 
      7.524451162606 
      7.524458102830 
      7.524448763387 
      7.524451157906 
      7.524458098130 
      7.530179458795 
      7.555316226112 
      7.577171647777 
      7.530180098113 
      7.555317886159 
      7.577173358932 
      7.530180058457 
      7.555317529618 
      7.577173033806 
      7.581004655133 
      7.611190911077 
      7.645491410358 
      7.581007895753 
      7.611195769914 
      7.645495594110 
      7.581006947909 
      7.611194196141 
      7.645494091831 
      7.645417806893 
      7.667195201416 
      7.698669167532 
      7.645421745790 
      7.667200228204 
      7.698671508178 
      7.645420459561 
      7.667199030739 
      7.698670258759 
      7.700250675812 
      7.700308118568 
      7.700361015620 
      7.700250867506 
      7.700308310263 
      7.700361207315 
      7.700251059201 
      7.700308501957 
      7.700361399009 
      7.700362223274 
      7.700399444642 
      7.700432120306 
      7.700362413928 
      7.700399635296 
      7.700432310960 
      7.700362604582 
      7.700399825950 
      7.700432501613 
      7.698512896991 
      7.667419043517 
      7.645750847702 
      7.698513527708 
      7.667421250344 
      7.645757246205 
      7.698514759178 
      7.667421460709 
      7.645755925887 
      7.645414357990 
      7.611649260479 
      7.580975149906 
      7.645421765644 
      7.611658091905 
      7.580981520525 
      7.645419156344 
      7.611655317944 
      7.580979682636 
      7.580952841220 
      7.556821619404 
      7.523317255973 
      7.580959418323 
      7.556828696940 
      7.523319018092 
      7.580957576998 
      7.556826344569 
      7.523318417866 
      7.522964087496 
      7.522959363835 
      7.522959185880 
      7.522964159789 
      7.522959436129 
      7.522959258173 
      7.522964232083 
      7.522959508422 
      7.522959330466 
      7.522959208798 
      7.522963895551 
      7.522973128009 
      7.522959281184 
      7.522963967937 
      7.522973200395 
      7.522959353570 
      7.522964040323 
      7.522973272781 
      7.523328687282 
      7.556837939263 
      7.580971024421 
      7.523330207693 
      7.556844957562 
      7.580977323867 
      7.523329686602 
      7.556842664878 
      7.580975459445 
      7.580999098650 
      7.611678973210 
      7.645447862128 
      7.581005070002 
      7.611685344442 
      7.645453587248 
      7.581003343212 
      7.611683496473 
      7.645451184757 
      7.645793945484 
      7.667474290517 
      7.698580198097 
      7.645799153747 
      7.667473242126 
      7.698580359862 
      7.645797483113 
      7.667474484338 
      7.698578389107 
      7.700492886249 
      7.700499638950 
      7.700501845947 
      7.700492461614 
      7.700499214316 
      7.700501421312 
      7.700492036979 
      7.700498789681 
      7.700500996678 
      7.700501846997 
      7.700500121487 
      7.700493850273 
      7.700501422363 
      7.700499696854 
      7.700493425639 
      7.700500997729 
      7.700499272220 
      7.700493001005 
      7.698581343943 
      7.667477553486 
      7.645797620491 
      7.698581266616 
      7.667474296047 
      7.645800726516 
      7.698579433232 
      7.667476174790 
      7.645799619035 
      7.645451673155 
      7.611685952504 
      7.581006457176 
      7.645455091080 
      7.611686638910 
      7.581007236939 
      7.645453804764 
      7.611686511992 
      7.581006988257 
      7.580978450501 
      7.556849799927 
      7.523335834124 
      7.580979659275 
      7.556847701589 
      7.523334192260 
      7.580979179877 
      7.556847655633 
      7.523335152869 
      7.522978310486 
      7.522971211285 
      7.522968657788 
      7.522978172111 
      7.522971072909 
      7.522968519413 
      7.522978033735 
      7.522970934534 
      7.522968381037 
      7.522968658353 
      7.522971163076 
      7.522978213504 
      7.522968519977 
      7.522971024700 
      7.522978075128 
      7.522968381601 
      7.522970886324 
      7.522977936752 
      7.523334332881 
      7.556849615352 
      7.580986149681 
      7.523334336549 
      7.556847619201 
      7.580978504222 
      7.523332192364 
      7.556847100308 
      7.580980184190 
      7.581013747363 
      7.611693681658 
      7.645459646415 
      7.581006199632 
      7.611685698914 
      7.645454106771 
      7.581008171857 
      7.611688260375 
      7.645455405698 
      7.645804764057 
      7.667478284502 
      7.698579727749 
      7.645799907329 
      7.667474344220 
      7.698578239207 
      7.645801039316 
      7.667475496530 
      7.698578766126 
      7.700490208453 
      7.700497026874 
      7.700499299590 
      7.700490177332 
      7.700496995754 
      7.700499268470 
      7.700490146212 
      7.700496964633 
      7.700499237350 
      7.700499299563 
      7.700496854835 
      7.700489864403 
      7.700499268443 
      7.700496823715 
      7.700489833282 
      7.700499237322 
      7.700496792595 
      7.700489802162 
      7.698578659580 
      7.667475122121 
      7.645800210904 
      7.698578209139 
      7.667474473778 
      7.645799946639 
      7.698578347404 
      7.667474685033 
      7.645800038831 
      7.645454607959 
      7.611686808441 
      7.581007212198 
      7.645454343237 
      7.611686541300 
      7.581007048115 
      7.645454437928 
      7.611686632768 
      7.581007096023 
      7.580979583404 
      7.556847906631 
      7.523334739092 
      7.580979418243 
      7.556847750089 
      7.523334685107 
      7.580979463764 
      7.556847804079 
      7.523334702524 
      7.522977983065 
      7.522970866085 
      7.522968294810 
      7.522977981530 
      7.522970864549 
      7.522968293274 
      7.522977979994 
      7.522970863014 
      7.522968291738 
      7.522968294829 
      7.522970507563 
      7.522977266003 
      7.522968293293 
      7.522970506028 
      7.522977264467 
      7.522968291758 
      7.522970504492 
      7.522977262931 
      7.523333915327 
      7.556846494748 
      7.580978171913 
      7.523333859471 
      7.556846317708 
      7.580977981780 
      7.523333877585 
      7.556846377798 
      7.580978034409 
      7.581005492653 
      7.611684451551 
      7.645452636526 
      7.581005306264 
      7.611684147483 
      7.645452337619 
      7.581005360772 
      7.611684249600 
      7.645452442763 
      7.645797208433 
      7.667470046716 
      7.698582233994 
      7.645796912611 
      7.667469320175 
      7.698581756340 
      7.645797011478 
      7.667469552309 
      7.698581897337 
      7.700498654622 
      7.700505438121 
      7.700507675914 
      7.700498620437 
      7.700505403935 
      7.700507641728 
      7.700498586251 
      7.700505369749 
      7.700507607542 
      7.700507675872 
      7.700505202313 
      7.700498183048 
      7.700507641687 
      7.700505168127 
      7.700498148862 
      7.700507607501 
      7.700505133941 
      7.700498114676 
      7.698582320024 
      7.667471894040 
      7.645799992586 
      7.698580900427 
      7.667467914541 
      7.645795111601 
      7.698581435774 
      7.667469016060 
      7.645796357070 
      7.645455730647 
      7.611688289310 
      7.581007904411 
      7.645450191815 
      7.611681252923 
      7.581001087592 
      7.645451536997 
      7.611683402447 
      7.581003003483 
      7.580980973400 
      7.556842943887 
      7.523326369079 
      7.580973334033 
      7.556841899408 
      7.523326513061 
      7.580976027770 
      7.556841308171 
      7.523327232666 
      7.522969189448 
      7.522960206606 
      7.522955769470 
      7.522969479368 
      7.522960496526 
      7.522956059390 
      7.522969769288 
      7.522960786446 
      7.522956349309 
      7.522955705242 
      7.522955702434 
      7.522960245330 
      7.522955994851 
      7.522955992043 
      7.522960534939 
      7.522956284460 
      7.522956281651 
      7.522960824548 
      7.523315191391 
      7.556826744887 
      7.580963201144 
      7.523315336346 
      7.556825679426 
      7.580955496244 
      7.523316061646 
      7.556825086461 
      7.580958261197 
      7.580984512165 
      7.611660818268 
      7.645424132801 
      7.580977616565 
      7.611653727076 
      7.645418576412 
      7.580979599434 
      7.611655931468 
      7.645419923986 
      7.645758392797 
      7.667419538903 
      7.698518327608 
      7.645753499104 
      7.667415562534 
      7.698516905959 
      7.645754712798 
      7.667416671835 
      7.698517438898 
      7.700442097325 
      7.700409164818 
      7.700371686606 
      7.700442064835 
      7.700409132328 
      7.700371654115 
      7.700442032344 
      7.700409099837 
      7.700371621625 
      7.700370383622 
      7.700317646590 
      7.700260363853 
      7.700370350459 
      7.700317613427 
      7.700260330689 
      7.700370317295 
      7.700317580263 
      7.700260297526 
      7.698675256215 
      7.667195669000 
      7.645418922815 
      7.698674864384 
      7.667195000917 
      7.645418641187 
      7.698674970383 
      7.667195219039 
      7.645418736243 
      7.645493785941 
      7.611193287494 
      7.581005943928 
      7.645493519502 
      7.611192996322 
      7.581005751314 
      7.645493615374 
      7.611193096430 
      7.581005805431 
      7.577172298690 
      7.555316516833 
      7.530178448003 
      7.577172204467 
      7.555316432439 
      7.530178411867 
      7.577172218455 
      7.555316449924 
      7.530178411217 
      7.524456574283 
      7.524449638840 
      7.524447249101 
      7.524456574363 
      7.524449638920 
      7.524447249181 
      7.524456574443 
      7.524449638999 
      7.524447249261 
      7.524448763387 
      7.524451148345 
      7.524458079008 
      7.524448758848 
      7.524451143806 
      7.524458074469 
      7.524448754309 
      7.524451139267 
      7.524458069930 
      7.530179701176 
      7.555317452023 
      7.577173124908 
      7.530179787381 
      7.555317618172 
      7.577173240256 
      7.530179839628 
      7.555317812282 
      7.577173697361 
      7.581007014160 
      7.611194585169 
      7.645494494129 
      7.581007100537 
      7.611194814732 
      7.645494259737 
      7.581007666609 
      7.611195754315 
      7.645494515721 
      7.645420764124 
      7.667199441104 
      7.698669021355 
      7.645420742127 
      7.667199661168 
      7.698668993190 
      7.645420264006 
      7.667202003827 
      7.698662639400 
      7.700247138508 
      7.700306717991 
      7.700361751769 
      7.700248095223 
      7.700307674707 
      7.700362708485 
      7.700249051939 
      7.700308631422 
      7.700363665201 
      7.700362890096 
      7.700400864460 
      7.700434293120 
      7.700363837797 
      7.700401812162 
      7.700435240822 
      7.700364785499 
      7.700402759864 
      7.700436188524 
      7.698514604854 
      7.667420765593 
      7.645756426452 
      7.698515976660 
      7.667420401152 
      7.645756639268 
      7.698520527327 
      7.667422860910 
      7.645759490075 
      7.645419988926 
      7.611655996377 
      7.580979898324 
      7.645420118687 
      7.611656073519 
      7.580980251915 
      7.645424211570 
      7.611657858744 
      7.580982230282 
      7.580957616335 
      7.556826813104 
      7.523318701358 
      7.580958083790 
      7.556827211319 
      7.523318875275 
      7.580959698351 
      7.556827916110 
      7.523319172165 
      7.522964333688 
      7.522959562473 
      7.522959336963 
      7.522964498602 
      7.522959727387 
      7.522959501878 
      7.522964663517 
      7.522959892302 
      7.522959666792 
      7.522959349369 
      7.522964092301 
      7.522973380938 
      7.522959514323 
      7.522964257255 
      7.522973545892 
      7.522959679278 
      7.522964422209 
      7.522973710846 
      7.523329937688 
      7.556843077663 
      7.580975525508 
      7.523330132944 
      7.556843482288 
      7.580976035204 
      7.523330449279 
      7.556844209222 
      7.580977511873 
      7.581003556815 
      7.611683922340 
      7.645451886944 
      7.581003898903 
      7.611683642694 
      7.645452334168 
      7.581005364935 
      7.611685997609 
      7.645454189851 
      7.645798199329 
      7.667474641554 
      7.698577893421 
      7.645798427333 
      7.667473209280 
      7.698579637175 
      7.645799348327 
      7.667475934662 
      7.698575049704 
      7.700491814926 
      7.700498680031 
      7.700500999430 
      7.700490679339 
      7.700497544443 
      7.700499863842 
      7.700489543751 
      7.700496408855 
      7.700498728254 
      7.700501000039 
      7.700499105233 
      7.700492664722 
      7.700499864452 
      7.700497969646 
      7.700491529135 
      7.700498728865 
      7.700496834059 
      7.700490393548 
      7.698578898142 
      7.667476207488 
      7.645800117176 
      7.698580644434 
      7.667474608200 
      7.645800366664 
      7.698575853157 
      7.667477159141 
      7.645800699036 
      7.645454049659 
      7.611686506893 
      7.581007498005 
      7.645454272978 
      7.611686157332 
      7.581007640314 
      7.645455908511 
      7.611687009990 
      7.581007176864 
      7.580979642808 
      7.556847736533 
      7.523336286734 
      7.580979514806 
      7.556848111591 
      7.523335730638 
      7.580980283226 
      7.556845354136 
      7.523336396099 
      7.522982556080 
      7.522973087201 
      7.522968164027 
      7.522980916776 
      7.522971447897 
      7.522966524723 
      7.522979277472 
      7.522969808592 
      7.522964885418 
      7.522968175169 
      7.522971667448 
      7.522979705433 
      7.522966050413 
      7.522969542693 
      7.522977580677 
      7.522963925658 
      7.522967417937 
      7.522975455922 
      7.523332306067 
      7.556847807745 
      7.580979712827 
      7.523333349944 
      7.556848975304 
      7.580979913296 
      7.523331516592 
      7.556843144781 
      7.580977824411 
      7.581007769597 
      7.611687778961 
      7.645455267359 
      7.581008166514 
      7.611687401870 
      7.645454981918 
      7.581003826954 
      7.611686131975 
      7.645453268830 
      7.645801030803 
      7.667475317564 
      7.698578665616 
      7.645800596297 
      7.667475044334 
      7.698578562526 
      7.645799337399 
      7.667474884335 
      7.698578276623 
      7.700490072782 
      7.700496927915 
      7.700499237342 
      7.700489999594 
      7.700496854727 
      7.700499164154 
      7.700489926407 
      7.700496781539 
      7.700499090967 
      7.700499237334 
      7.700496788966 
      7.700489794893 
      7.700499164147 
      7.700496715779 
      7.700489721706 
      7.700499090959 
      7.700496642591 
      7.700489648518 
      7.698578282249 
      7.667474635515 
      7.645799994272 
      7.698578225372 
      7.667474592037 
      7.645799982685 
      7.698578175122 
      7.667474543427 
      7.645799973323 
      7.645454408598 
      7.611686612723 
      7.581007090094 
      7.645454377936 
      7.611686597530 
      7.581007077545 
      7.645454349663 
      7.611686581603 
      7.581007065788 
      7.580979470813 
      7.556847791658 
      7.523334694756 
      7.580979445043 
      7.556847782725 
      7.523334691758 
      7.580979421243 
      7.556847774397 
      7.523334688597 
      7.522977977127 
      7.522970861585 
      7.522968291749 
      7.522977973967 
      7.522970858425 
      7.522968288589 
      7.522977970806 
      7.522970855265 
      7.522968285428 
      7.522968291746 
      7.522970503026 
      7.522977260011 
      7.522968288586 
      7.522970499866 
      7.522977256851 
      7.522968285426 
      7.522970496706 
      7.522977253691 
      7.523333869763 
      7.556846365375 
      7.580978042099 
      7.523333866483 
      7.556846354432 
      7.580978013528 
      7.523333863058 
      7.556846344219 
      7.580977986400 
      7.581005354973 
      7.611684229699 
      7.645452415088 
      7.581005339740 
      7.611684211216 
      7.645452378242 
      7.581005324758 
      7.611684191595 
      7.645452342780 
      7.645796967712 
      7.667469503571 
      7.698581835389 
      7.645796952348 
      7.667469451794 
      7.698581772578 
      7.645796936342 
      7.667469391327 
      7.698581706878 
      7.700498581088 
      7.700505367174 
      7.700507607554 
      7.700498496580 
      7.700505282666 
      7.700507523047 
      7.700498412072 
      7.700505198158 
      7.700507438539 
      7.700507607532 
      7.700505100416 
      7.700498047594 
      7.700507523025 
      7.700505015908 
      7.700497963087 
      7.700507438517 
      7.700504931401 
      7.700497878579 
      7.698581315299 
      7.667468930484 
      7.645796078134 
      7.698581227768 
      7.667468614703 
      7.645795819741 
      7.698580908452 
      7.667468356911 
      7.645794438246 
      7.645451253371 
      7.611683050736 
      7.581002638262 
      7.645451156226 
      7.611682894701 
      7.581003168687 
      7.645449576442 
      7.611680954231 
      7.581000137246 
      7.580975655535 
      7.556840967534 
      7.523327156623 
      7.580975115421 
      7.556842791966 
      7.523327079177 
      7.580973666956 
      7.556837219294 
      7.523330015463 
      7.522971746548 
      7.522961699607 
      7.522956198370 
      7.522971704516 
      7.522961657575 
      7.522956156339 
      7.522971662484 
      7.522961615543 
      7.522956114307 
      7.522956373319 
      7.522957252079 
      7.522962676545 
      7.522956274257 
      7.522957153017 
      7.522962577483 
      7.522956175194 
      7.522957053955 
      7.522962478420 
      7.523315977957 
      7.556824739835 
      7.580957825504 
      7.523315909428 
      7.556826582767 
      7.580957263406 
      7.523318794827 
      7.556820955680 
      7.580955934778 
      7.580979185838 
      7.611655581064 
      7.645419672647 
      7.580979694563 
      7.611655332683 
      7.645419536086 
      7.580976739810 
      7.611653664556 
      7.645417966577 
      7.645754473234 
      7.667416582377 
      7.698517316775 
      7.645754219522 
      7.667416259760 
      7.698517235950 
      7.645752822379 
      7.667416052520 
      7.698516920777 
      7.700441969732 
      7.700409061952 
      7.700371608467 
      7.700441890414 
      7.700408982634 
      7.700371529148 
      7.700441811095 
      7.700408903315 
      7.700371449830 
      7.700370317027 
      7.700317575312 
      7.700260287891 
      7.700370237389 
      7.700317495674 
      7.700260208253 
      7.700370157751 
      7.700317416036 
      7.700260128615 
      7.698674921186 
      7.667195169596 
      7.645418692104 
      7.698674858389 
      7.667195124100 
      7.645418681694 
      7.698674794024 
      7.667195073012 
      7.645418673524 
      7.645493590396 
      7.611193072004 
      7.581005807008 
      7.645493551558 
      7.611193056944 
      7.581005787330 
      7.645493515454 
      7.611193040828 
      7.581005767709 
      7.577172221138 
      7.555316453802 
      7.530178432115 
      7.577172203977 
      7.555316445478 
      7.530178428790 
      7.577172187256 
      7.555316437489 
      7.530178425613 
      7.524456574770 
      7.524449639163 
      7.524447249261 
      7.524456574846 
      7.524449639239 
      7.524447249337 
      7.524456574922 
      7.524449639315 
      7.524447249413 
      7.524448754309 
      7.524451144289 
      7.524458079973 
      7.524448754470 
      7.524451144449 
      7.524458080134 