# vtk DataFile Version 2.0
NDG-FEM NonhydrostaticStandingWave2d Simulation
ASCII
DATASET UNSTRUCTURED_GRID

POINTS 405 double
0.00000000000000000000  0.00000000000000000000  0.00000000000000000000
1.00000000000000000000  0.00000000000000000000  0.00000000000000000000
2.00000000000000000000  0.00000000000000000000  0.00000000000000000000
0.00000000000000000000  1.00000000000000000000  0.00000000000000000000
1.00000000000000000000  1.00000000000000000000  0.00000000000000000000
2.00000000000000000000  1.00000000000000000000  0.00000000000000000000
0.00000000000000000000  2.00000000000000000000  0.00000000000000000000
1.00000000000000000000  2.00000000000000000000  0.00000000000000000000
2.00000000000000000000  2.00000000000000000000  0.00000000000000000000
2.00000000000000000000  0.00000000000000000000  0.00000000000000000000
3.00000000000000000000  0.00000000000000000000  0.00000000000000000000
4.00000000000000000000  0.00000000000000000000  0.00000000000000000000
2.00000000000000000000  1.00000000000000000000  0.00000000000000000000
3.00000000000000000000  1.00000000000000000000  0.00000000000000000000
4.00000000000000000000  1.00000000000000000000  0.00000000000000000000
2.00000000000000000000  2.00000000000000000000  0.00000000000000000000
3.00000000000000000000  2.00000000000000000000  0.00000000000000000000
4.00000000000000000000  2.00000000000000000000  0.00000000000000000000
4.00000000000000000000  0.00000000000000000000  0.00000000000000000000
5.00000000000000000000  0.00000000000000000000  0.00000000000000000000
6.00000000000000000000  0.00000000000000000000  0.00000000000000000000
4.00000000000000000000  1.00000000000000000000  0.00000000000000000000
5.00000000000000000000  1.00000000000000000000  0.00000000000000000000
6.00000000000000000000  1.00000000000000000000  0.00000000000000000000
4.00000000000000000000  2.00000000000000000000  0.00000000000000000000
5.00000000000000000000  2.00000000000000000000  0.00000000000000000000
6.00000000000000000000  2.00000000000000000000  0.00000000000000000000
6.00000000000000000000  0.00000000000000000000  0.00000000000000000000
7.00000000000000000000  0.00000000000000000000  0.00000000000000000000
8.00000000000000000000  0.00000000000000000000  0.00000000000000000000
6.00000000000000000000  1.00000000000000000000  0.00000000000000000000
7.00000000000000000000  1.00000000000000000000  0.00000000000000000000
8.00000000000000000000  1.00000000000000000000  0.00000000000000000000
6.00000000000000000000  2.00000000000000000000  0.00000000000000000000
7.00000000000000000000  2.00000000000000000000  0.00000000000000000000
8.00000000000000000000  2.00000000000000000000  0.00000000000000000000
8.00000000000000000000  0.00000000000000000000  0.00000000000000000000
9.00000000000000000000  0.00000000000000000000  0.00000000000000000000
10.00000000000000000000  0.00000000000000000000  0.00000000000000000000
8.00000000000000000000  1.00000000000000000000  0.00000000000000000000
9.00000000000000000000  1.00000000000000000000  0.00000000000000000000
10.00000000000000000000  1.00000000000000000000  0.00000000000000000000
8.00000000000000000000  2.00000000000000000000  0.00000000000000000000
9.00000000000000000000  2.00000000000000000000  0.00000000000000000000
10.00000000000000000000  2.00000000000000000000  0.00000000000000000000
10.00000000000000000000  0.00000000000000000000  0.00000000000000000000
11.00000000000000000000  0.00000000000000000000  0.00000000000000000000
12.00000000000000000000  0.00000000000000000000  0.00000000000000000000
10.00000000000000000000  1.00000000000000000000  0.00000000000000000000
11.00000000000000000000  1.00000000000000000000  0.00000000000000000000
12.00000000000000000000  1.00000000000000000000  0.00000000000000000000
10.00000000000000000000  2.00000000000000000000  0.00000000000000000000
11.00000000000000000000  2.00000000000000000000  0.00000000000000000000
12.00000000000000000000  2.00000000000000000000  0.00000000000000000000
12.00000000000000000000  0.00000000000000000000  0.00000000000000000000
13.00000000000000000000  0.00000000000000000000  0.00000000000000000000
14.00000000000000000000  0.00000000000000000000  0.00000000000000000000
12.00000000000000000000  1.00000000000000000000  0.00000000000000000000
13.00000000000000000000  1.00000000000000000000  0.00000000000000000000
14.00000000000000000000  1.00000000000000000000  0.00000000000000000000
12.00000000000000000000  2.00000000000000000000  0.00000000000000000000
13.00000000000000000000  2.00000000000000000000  0.00000000000000000000
14.00000000000000000000  2.00000000000000000000  0.00000000000000000000
14.00000000000000000000  0.00000000000000000000  0.00000000000000000000
15.00000000000000000000  0.00000000000000000000  0.00000000000000000000
16.00000000000000000000  0.00000000000000000000  0.00000000000000000000
14.00000000000000000000  1.00000000000000000000  0.00000000000000000000
15.00000000000000000000  1.00000000000000000000  0.00000000000000000000
16.00000000000000000000  1.00000000000000000000  0.00000000000000000000
14.00000000000000000000  2.00000000000000000000  0.00000000000000000000
15.00000000000000000000  2.00000000000000000000  0.00000000000000000000
16.00000000000000000000  2.00000000000000000000  0.00000000000000000000
16.00000000000000000000  0.00000000000000000000  0.00000000000000000000
17.00000000000000000000  0.00000000000000000000  0.00000000000000000000
18.00000000000000000000  0.00000000000000000000  0.00000000000000000000
16.00000000000000000000  1.00000000000000000000  0.00000000000000000000
17.00000000000000000000  1.00000000000000000000  0.00000000000000000000
18.00000000000000000000  1.00000000000000000000  0.00000000000000000000
16.00000000000000000000  2.00000000000000000000  0.00000000000000000000
17.00000000000000000000  2.00000000000000000000  0.00000000000000000000
18.00000000000000000000  2.00000000000000000000  0.00000000000000000000
18.00000000000000000000  0.00000000000000000000  0.00000000000000000000
19.00000000000000000000  0.00000000000000000000  0.00000000000000000000
20.00000000000000000000  0.00000000000000000000  0.00000000000000000000
18.00000000000000000000  1.00000000000000000000  0.00000000000000000000
19.00000000000000000000  1.00000000000000000000  0.00000000000000000000
20.00000000000000000000  1.00000000000000000000  0.00000000000000000000
18.00000000000000000000  2.00000000000000000000  0.00000000000000000000
19.00000000000000000000  2.00000000000000000000  0.00000000000000000000
20.00000000000000000000  2.00000000000000000000  0.00000000000000000000
20.00000000000000000000  0.00000000000000000000  0.00000000000000000000
21.00000000000000000000  0.00000000000000000000  0.00000000000000000000
22.00000000000000000000  0.00000000000000000000  0.00000000000000000000
20.00000000000000000000  1.00000000000000000000  0.00000000000000000000
21.00000000000000000000  1.00000000000000000000  0.00000000000000000000
22.00000000000000000000  1.00000000000000000000  0.00000000000000000000
20.00000000000000000000  2.00000000000000000000  0.00000000000000000000
21.00000000000000000000  2.00000000000000000000  0.00000000000000000000
22.00000000000000000000  2.00000000000000000000  0.00000000000000000000
22.00000000000000000000  0.00000000000000000000  0.00000000000000000000
23.00000000000000000000  0.00000000000000000000  0.00000000000000000000
24.00000000000000000000  0.00000000000000000000  0.00000000000000000000
22.00000000000000000000  1.00000000000000000000  0.00000000000000000000
23.00000000000000000000  1.00000000000000000000  0.00000000000000000000
24.00000000000000000000  1.00000000000000000000  0.00000000000000000000
22.00000000000000000000  2.00000000000000000000  0.00000000000000000000
23.00000000000000000000  2.00000000000000000000  0.00000000000000000000
24.00000000000000000000  2.00000000000000000000  0.00000000000000000000
24.00000000000000000000  0.00000000000000000000  0.00000000000000000000
25.00000000000000000000  0.00000000000000000000  0.00000000000000000000
26.00000000000000000000  0.00000000000000000000  0.00000000000000000000
24.00000000000000000000  1.00000000000000000000  0.00000000000000000000
25.00000000000000000000  1.00000000000000000000  0.00000000000000000000
26.00000000000000000000  1.00000000000000000000  0.00000000000000000000
24.00000000000000000000  2.00000000000000000000  0.00000000000000000000
25.00000000000000000000  2.00000000000000000000  0.00000000000000000000
26.00000000000000000000  2.00000000000000000000  0.00000000000000000000
26.00000000000000000000  0.00000000000000000000  0.00000000000000000000
27.00000000000000000000  0.00000000000000000000  0.00000000000000000000
28.00000000000000000000  0.00000000000000000000  0.00000000000000000000
26.00000000000000000000  1.00000000000000000000  0.00000000000000000000
27.00000000000000000000  1.00000000000000000000  0.00000000000000000000
28.00000000000000000000  1.00000000000000000000  0.00000000000000000000
26.00000000000000000000  2.00000000000000000000  0.00000000000000000000
27.00000000000000000000  2.00000000000000000000  0.00000000000000000000
28.00000000000000000000  2.00000000000000000000  0.00000000000000000000
28.00000000000000000000  0.00000000000000000000  0.00000000000000000000
29.00000000000000000000  0.00000000000000000000  0.00000000000000000000
30.00000000000000000000  0.00000000000000000000  0.00000000000000000000
28.00000000000000000000  1.00000000000000000000  0.00000000000000000000
29.00000000000000000000  1.00000000000000000000  0.00000000000000000000
30.00000000000000000000  1.00000000000000000000  0.00000000000000000000
28.00000000000000000000  2.00000000000000000000  0.00000000000000000000
29.00000000000000000000  2.00000000000000000000  0.00000000000000000000
30.00000000000000000000  2.00000000000000000000  0.00000000000000000000
0.00000000000000000000  2.00000000000000000000  0.00000000000000000000
1.00000000000000000000  2.00000000000000000000  0.00000000000000000000
[...]
POINT_DATA 405
SCALARS  H  double
LOOKUP_TABLE default
      7.702794586784 
      7.698168272085 
      7.684663884816 
      7.702877432341 
      7.698167828452 
      7.684787054527 
      7.702847676210 
      7.698168180973 
      7.684779174969 
      7.685066412355 
      7.664308781064 
      7.638633936003 
      7.685106918121 
      7.664286851566 
      7.638649871192 
      7.685096242439 
      7.664290838116 
      7.638634263640 
      7.638937944989 
      7.610797749316 
      7.583105167049 
      7.638946748693 
      7.610797085620 
      7.583109831640 
      7.638920056865 
      7.610798798663 
      7.583122437183 
      7.583337102867 
      7.558896374992 
      7.539521724720 
      7.583342173119 
      7.558896290883 
      7.539520428605 
      7.583351868193 
      7.558893099067 
      7.539519218923 
      7.539645431769 
      7.527553707090 
      7.523161143467 
      7.539644435723 
      7.527554286485 
      7.523160937251 
      7.539643034713 
      7.527555721275 
      7.523160749559 
      7.523160919132 
      7.527548475624 
      7.539625391493 
      7.523160288106 
      7.527548404381 
      7.539625661478 
      7.523158911792 
      7.527548129560 
      7.539626448386 
      7.539503354118 
      7.558897109972 
      7.583413314428 
      7.539503542297 
      7.558897010113 
      7.583413366490 
      7.539504034977 
      7.558896743483 
      7.583413593248 
      7.583178710989 
      7.610891720944 
      7.639054573358 
      7.583178832013 
      7.610891710128 
      7.639054531632 
      7.583179130619 
      7.610891667544 
      7.639054574254 
      7.638769389025 
      7.664419991552 
      7.685221731680 
      7.638769410695 
      7.664419997698 
      7.685221580698 
      7.638769512264 
      7.664419939327 
      7.685221619940 
      7.685016796213 
      7.698244323549 
      7.703058437995 
      7.685016747565 
      7.698244389490 
      7.703057767830 
      7.685016984503 
      7.698244352742 
      7.703056602231 
      7.703054026083 
      7.698227984717 
      7.685006596979 
      7.703053468019 
      7.698228550083 
      7.685005671268 
      7.703052937968 
      7.698229815753 
      7.685003239071 
      7.685217087874 
      7.664432805234 
      7.638814579098 
      7.685215533320 
      7.664433378976 
      7.638817423053 
      7.685212300824 
      7.664434410956 
      7.638819884395 
      7.639105054956 
      7.610979825841 
      7.583260931965 
      7.639104923798 
      7.610977657700 
      7.583286137860 
      7.639102288229 
      7.610979634416 
      7.583303183365 
      7.583498661773 
      7.559055664422 
      7.539604960488 
      7.583523438950 
      7.559029360891 
      7.539627557523 
      7.583531607777 
      7.559011985095 
      7.539618752875 
      7.539795370058 
      7.527643018746 
      7.523285212149 
      7.539839229270 
      7.527606145113 
      7.523327299468 
      7.539845811070 
      7.527598387743 
      7.523389043136 
      7.702795932575 
      7.698166162406 
      7.684752509541 
      7.702728312515 
      7.698186850330 
      7.684732610312 
      7.702903271417 
      7.698179266730 
      7.684762847537 
      7.685095290420 
      7.664296022480 
      7.638631807156 
      7.685079376348 
      7.664295454013 
      7.638631994306 
      7.685071636215 
      7.664284316282 
      7.638654502484 
      7.638917455760 
      7.610798922326 
      7.583121691854 
      7.638908788264 
      7.610797477298 
      7.583133012093 
      7.638924803594 
      7.610793175608 
      7.583141815639 
      7.583350898963 
      7.558893416055 
      7.539519544909 
      7.583363821103 
      7.558890918398 
      7.539516985010 
      7.583375756245 
      7.558887267206 
      7.539516073624 
      7.539643104590 
      7.527555565547 
      7.523160894727 
      7.539642353568 
      7.527557084141 
      7.523160278951 
      7.539644833153 
      7.527558287717 
      7.523158578153 
      7.523159081253 
      7.527548106653 
      7.539626429017 
      7.523157891081 
      7.527547911650 
      7.539626965278 
      7.523156595721 
      7.527548263381 
      7.539626813311 
      7.539504043662 
      7.558896758902 
      7.583413571507 
      7.539504480877 
      7.558896581946 
      7.583413667928 
      7.539504238758 
      7.558896552331 
      7.583413739865 
      7.583179109589 
      7.610891673322 
      7.639054576400 
      7.583179277091 
      7.610891659081 
      7.639054785327 
      7.583179324253 
      7.610891608404 
      7.639054938706 
      7.638769504677 
      7.664419937076 
      7.685221658645 
      7.638769681042 
      7.664419704057 
      7.685222091822 
      7.638769872544 
      7.664419558782 
      7.685221836682 
      7.685017005491 
      7.698244325106 
      7.703056768996 
      7.685017727513 
      7.698244114748 
      7.703055296016 
      7.685017882303 
      7.698244515284 
      7.703052778984 
      7.703053102501 
      7.698229638948 
      7.685003358465 
      7.703052612985 
      7.698231159211 
      7.685003053193 
      7.703050520114 
      7.698233046336 
      7.685004697423 
      7.685212650647 
      7.664434449831 
      7.638819243387 
      7.685211698019 
      7.664431830442 
      7.638827482962 
      7.685211096813 
      7.664428165915 
      7.638830940343 
      7.639102120675 
      7.610979700145 
      7.583301138511 
      7.639111687803 
      7.610979401785 
      7.583293429982 
      7.639115125192 
      7.610987481247 
      7.583275298957 
      7.583529784793 
      7.559014047138 
      7.539612289479 
      7.583531933475 
      7.559009963703 
      7.539592473429 
      7.583511121095 
      7.559011710149 
      7.539644064622 
      7.539839483677 
      7.527610520125 
      7.523365569999 
      7.539852235007 
      7.527615714235 
      7.523453354536 
      7.539871745141 
      7.527587775248 
      7.523414184334 
      7.702825412783 
      7.698187429819 
      7.684750354928 
      7.702750909118 
      7.698189607981 
      7.684722247934 
      7.702942102368 
      7.698159014285 
      7.684783938574 
      7.685071989056 
      7.664284811514 
      7.638649677885 
      7.685030523295 
      7.664298129507 
      7.638656205443 
      7.685053637150 
      7.664280851735 
      7.638678650694 
      7.638920693443 
      7.610794563981 
      7.583141453771 
      7.638921151738 
      7.610795371044 
      7.583143489820 
      7.638946167507 
      7.610792071668 
      7.583143125515 
      7.583375333484 
      7.558887140308 
      7.539515967652 
      7.583376082242 
      7.558884268780 
      7.539517741502 
      7.583377916684 
      7.558884079086 
      7.539517638192 
      7.539644624672 
      7.527558407302 
      7.523158518027 
      7.539647766718 
      7.527558538708 
      7.523157597888 
      7.539648716230 
      7.527558611780 
      7.523157226899 
      7.523156452643 
      7.527548271542 
      7.539626840943 
      7.523155811705 
      7.527548601178 
      7.539626692110 
      7.523155681651 
      7.527548729787 
      7.539626589978 
      7.539504232943 
      7.558896541295 
      7.583413754565 
      7.539503923940 
      7.558896535573 
      7.583413885764 
      7.539503802615 
      7.558896541719 
      7.583413908740 
      7.583179336572 
      7.610891604704 
      7.639054939428 
      7.583179372014 
      7.610891532312 
      7.639055169272 
      7.583179372540 
      7.610891515351 
      7.639055251223 
      7.638769877278 
      7.664419559386 
      7.685221833546 
      7.638770089947 
      7.664419387247 
      7.685221815986 
      7.638770162758 
      7.664419325038 
      7.685221808993 
      7.685017887653 
      7.698244512726 
      7.703052778761 
      7.685018143920 
      7.698244755296 
      7.703051258849 
      7.685018256100 
      7.698244837621 
      7.703050339400 
      7.703050563026 
      7.698233069248 
      7.685004447792 
      7.703049246627 
      7.698234086574 
      7.685007307822 
      7.703048371526 
      7.698235065885 
      7.685006306691 
      7.685211092642 
      7.664428240273 
      7.638830192739 
      7.685211901574 
      7.664424205973 
      7.638836944532 
      7.685209436471 
      7.664425006744 
      7.638837079038 
      7.639114089974 
      7.610988133103 
      7.583270446595 
      7.639122731598 
      7.610989163927 
      7.583266017534 
      7.639116633803 
      7.610990872310 
      7.583277869792 
      7.583507208941 
      7.559015082577 
      7.539636112125 
      7.583507980094 
      7.559019651015 
      7.539606167335 
      7.583513954999 
      7.559010949521 
      7.539655270472 
      7.539836234209 
      7.527599621171 
      7.523373581963 
      7.539833150108 
      7.527587619005 
      7.523390474969 
      7.539873751894 
      7.527530399874 
      7.523521078969 
SCALARS  HU  double
LOOKUP_TABLE default
      0.001918188305 
     -0.115315818038 
     -0.217123319953 
      0.001207766444 
     -0.115218548568 
     -0.216945966025 
      0.001666292171 
     -0.115070957135 
     -0.217059124763 
     -0.215784898362 
     -0.302385945910 
     -0.357444018310 
     -0.215753454280 
     -0.302530377389 
     -0.357336241934 
     -0.215660659101 
     -0.302490102181 
     -0.357417951134 
     -0.356543140406 
     -0.381161314930 
     -0.363930657218 
     -0.356459225661 
     -0.381165407715 
     -0.363895349647 
     -0.356663733062 
     -0.381145841541 
     -0.363794456094 
     -0.364826656839 
     -0.313518992563 
     -0.227205704078 
     -0.364784325278 
     -0.313524583025 
     -0.227214286572 
     -0.364709129954 
     -0.313550507018 
     -0.227223513614 
     -0.229287359321 
     -0.120990026622 
      0.001244313853 
     -0.229294112032 
     -0.120984831868 
      0.001243028361 
     -0.229304543721 
     -0.120973523897 
      0.001242494999 
     -0.001286914893 
      0.121021911763 
      0.229465406232 
     -0.001291944890 
      0.121021409027 
      0.229467687705 
     -0.001303746965 
      0.121019206986 
      0.229474115487 
      0.227378063797 
      0.313520537529 
      0.364172483892 
      0.227379495258 
      0.313519640056 
      0.364173174350 
      0.227383281684 
      0.313517561404 
      0.364174774977 
      0.363302199444 
      0.380352431001 
      0.355515354568 
      0.363303122799 
      0.380352347762 
      0.355515417326 
      0.363305414867 
      0.380352143430 
      0.355514818798 
      0.356273336869 
      0.301388899083 
      0.214667150274 
      0.356273238886 
      0.301388921644 
      0.214667739022 
      0.356272886435 
      0.301389707079 
      0.214666933986 
      0.216805578596 
      0.113512632351 
     -0.001407919524 
      0.216805215966 
      0.113512450305 
     -0.001403449550 
      0.216802729569 
      0.113512958729 
     -0.001393541929 
      0.001296586339 
     -0.113406061079 
     -0.216665997583 
      0.001299627161 
     -0.113410740890 
     -0.216658959495 
      0.001304118263 
     -0.113421320428 
     -0.216640250910 
     -0.214584209606 
     -0.301508209264 
     -0.356663208361 
     -0.214570385522 
     -0.301511738698 
     -0.356691832187 
     -0.214546292253 
     -0.301518130016 
     -0.356722233401 
     -0.355953554011 
     -0.381111123838 
     -0.364034113736 
     -0.355950988850 
     -0.381097418879 
     -0.364216012113 
     -0.355939699992 
     -0.381102940711 
     -0.364379998678 
     -0.364962407351 
     -0.314812731585 
     -0.228340109219 
     -0.365108385385 
     -0.314654959727 
     -0.228404683210 
     -0.365186685757 
     -0.314513905323 
     -0.228319139532 
     -0.229226860857 
     -0.122579867419 
      0.000515864706 
     -0.229615611001 
     -0.122370563982 
      0.001217275355 
     -0.229531992085 
     -0.122433189696 
      0.001368501964 
      0.001229434322 
     -0.115133265254 
     -0.216956716089 
      0.001506142692 
     -0.115152137987 
     -0.216873018830 
      0.001083268275 
     -0.115315024235 
     -0.216878358903 
     -0.215728181196 
     -0.302478998174 
     -0.357423336476 
     -0.215896103276 
     -0.302464324516 
     -0.357428719341 
     -0.215975704839 
     -0.302517438244 
     -0.357280350513 
     -0.356669721946 
     -0.381144965771 
     -0.363800007994 
     -0.356745100620 
     -0.381153607453 
     -0.363708173517 
     -0.356640767446 
     -0.381186923581 
     -0.363639327801 
     -0.364718916524 
     -0.313547335966 
     -0.227221920893 
     -0.364610418028 
     -0.313573267024 
     -0.227240310100 
     -0.364508999387 
     -0.313602924113 
     -0.227248336025 
     -0.229305087142 
     -0.120974830293 
      0.001243554926 
     -0.229309427945 
     -0.120961715509 
      0.001237355177 
     -0.229286907922 
     -0.120952310360 
      0.001224048713 
     -0.001302299144 
      0.121019106286 
      0.229473953236 
     -0.001313475840 
      0.121017826219 
      0.229478034440 
     -0.001323477313 
      0.121020354953 
      0.229477354132 
      0.227383418070 
      0.313517633843 
      0.364174642351 
      0.227387243173 
      0.313515946751 
      0.364174944162 
      0.227385666296 
      0.313515599209 
      0.364174996259 
      0.363305284916 
      0.380352185703 
      0.355514765168 
      0.363307194520 
      0.380352458873 
      0.355512043880 
      0.363307359974 
      0.380352736529 
      0.355510664937 
      0.356272879472 
      0.301389687754 
      0.214666641739 
      0.356271327407 
      0.301391859473 
      0.214663217140 
      0.356269656922 
      0.301393221333 
      0.214664964766 
      0.216802672876 
      0.113513188036 
     -0.001394708281 
      0.216797097040 
      0.113514393460 
     -0.001380610636 
      0.216794915503 
      0.113511484361 
     -0.001360817456 
      0.001303124736 
     -0.113420268524 
     -0.216640051276 
      0.001308074814 
     -0.113433494546 
     -0.216637930896 
      0.001323706545 
     -0.113448075381 
     -0.216654581505 
     -0.214548191433 
     -0.301518125181 
     -0.356716871934 
     -0.214540812645 
     -0.301496153965 
     -0.356778324693 
     -0.214536287417 
     -0.301465416260 
     -0.356814787046 
     -0.355939091222 
     -0.381105105555 
     -0.364366241678 
     -0.356007055786 
     -0.381118843832 
     -0.364282106828 
     -0.356047816931 
     -0.381179093607 
     -0.364168176091 
     -0.365180211372 
     -0.314529649506 
     -0.228341019976 
     -0.365180430513 
     -0.314514685222 
     -0.228141093192 
     -0.365033926752 
     -0.314522490496 
     -0.228505959462 
     -0.229549254417 
     -0.122498663247 
      0.001141444031 
     -0.229254078817 
     -0.122478430573 
      0.001186645843 
     -0.229491941005 
     -0.122490243377 
      0.000978011548 
      0.000957866986 
     -0.115162938812 
     -0.216890445386 
      0.001377279718 
     -0.115081643649 
     -0.217085930795 
      0.001215450019 
     -0.115014994968 
     -0.217159805519 
     -0.216019903742 
     -0.302510224849 
     -0.357316036995 
     -0.216276420421 
     -0.302455102793 
     -0.357228699155 
     -0.216147993460 
     -0.302498883795 
     -0.357132721391 
     -0.356666843647 
     -0.381174759396 
     -0.363643257361 
     -0.356652894743 
     -0.381182250211 
     -0.363616504891 
     -0.356501716380 
     -0.381202367894 
     -0.363620099037 
     -0.364514114513 
     -0.313603402869 
     -0.227249392248 
     -0.364506090891 
     -0.313624261717 
     -0.227238442225 
     -0.364481744852 
     -0.313629551280 
     -0.227236306424 
     -0.229288312371 
     -0.120951544915 
      0.001223695772 
     -0.229264979944 
     -0.120949671114 
      0.001215705803 
     -0.229254807152 
     -0.120949255544 
      0.001212323323 
     -0.001324603294 
      0.121020466814 
      0.229477574511 
     -0.001329824457 
      0.121023070749 
      0.229476365382 
     -0.001330992799 
      0.121024172235 
      0.229475661789 
      0.227385536554 
      0.313515533664 
      0.364175109737 
      0.227383148360 
      0.313515441519 
      0.364175295370 
      0.227382335640 
      0.313515456332 
      0.364175252057 
      0.363307390654 
      0.380352706772 
      0.355510745385 
      0.363307546422 
      0.380352853448 
      0.355509241889 
      0.363307624906 
      0.380352905566 
      0.355508579525 
      0.356269683428 
      0.301393196183 
      0.214664938992 
      0.356268464778 
      0.301394504859 
      0.214665455882 
      0.356268012573 
      0.301395053295 
      0.214665479241 
      0.216794758740 
      0.113511653881 
     -0.001361032125 
      0.216793068584 
      0.113509334137 
     -0.001347145655 
      0.216792062965 
      0.113508602453 
     -0.001339965362 
      0.001322906244 
     -0.113448078033 
     -0.216652934678 
      0.001335542905 
     -0.113457918589 
     -0.216673817372 
      0.001340545247 
     -0.113463841845 
     -0.216674081952 
     -0.214536485071 
     -0.301466070004 
     -0.356810588773 
     -0.214537901946 
     -0.301436738426 
     -0.356851796997 
     -0.214528407253 
     -0.301434209962 
     -0.356882402649 
     -0.356047912020 
     -0.381182726545 
     -0.364138345459 
     -0.356094405180 
     -0.381202756885 
     -0.364074628093 
     -0.356086560464 
     -0.381203609623 
     -0.364168579960 
     -0.365006535134 
     -0.314524073774 
     -0.228451536097 
     -0.365033434489 
     -0.314598508455 
     -0.228335252746 
     -0.364974193606 
     -0.314562790841 
     -0.228668422925 
     -0.229463730048 
     -0.122360117381 
      0.001002235369 
     -0.229372835892 
     -0.122385696448 
      0.001256166103 
     -0.229452095709 
     -0.122188181931 
      0.001281054693 
SCALARS  HV  double
LOOKUP_TABLE default
      0.000520793911 
     -0.000198682597 
      0.000164813124 
     -0.000025690823 
     -0.000140315686 
      0.000212490362 
     -0.000991309190 
      0.000293876569 
     -0.000799513900 
      0.000113110501 
      0.000017227573 
     -0.000039337287 
      0.000074058406 
      0.000013727595 
     -0.000018134786 
     -0.000160392949 
      0.000035630245 
      0.000040444259 
     -0.000019881647 
      0.000011947250 
     -0.000009884804 
     -0.000017075734 
     -0.000040016557 
      0.000000236302 
      0.000017615705 
     -0.000077998788 
      0.000010404059 
     -0.000007378915 
      0.000001026181 
      0.000000414231 
      0.000011051951 
      0.000012846958 
     -0.000005194919 
      0.000024881819 
      0.000019441966 
     -0.000006198949 
     -0.000000087789 
     -0.000000318500 
      0.000000352225 
     -0.000008436284 
     -0.000001481954 
      0.000003664705 
     -0.000010325279 
     -0.000002862900 
      0.000005851115 
      0.000000188118 
      0.000000069392 
     -0.000000143981 
      0.000003315355 
     -0.000001289171 
      0.000000422058 
      0.000006459099 
     -0.000001974851 
      0.000000095049 
     -0.000000089083 
      0.000000078724 
     -0.000000067066 
      0.000001343213 
      0.000000085232 
     -0.000000359149 
      0.000001742669 
      0.000000366849 
     -0.000000876508 
     -0.000000084226 
      0.000000025344 
      0.000000114694 
     -0.000000090962 
      0.000000122119 
     -0.000000103186 
     -0.000000523888 
      0.000000300411 
     -0.000000241523 
      0.000000057141 
     -0.000000117237 
      0.000000190661 
     -0.000000120820 
      0.000000021138 
      0.000000344471 
     -0.000000532390 
      0.000000095403 
      0.000001423914 
      0.000000377479 
     -0.000000003107 
     -0.000000067792 
      0.000000193893 
     -0.000000536932 
      0.000001519005 
      0.000000531080 
     -0.000001582384 
      0.000004470392 
      0.000000170676 
      0.000000192086 