# vtk DataFile Version 2.0
NDG-FEM NonhydrostaticStandingWave2d Simulation
ASCII
DATASET UNSTRUCTURED_GRID

POINTS 1350 double
0.00000000000000000000  0.00000000000000000000  0.00000000000000000000
1.00000000000000000000  0.00000000000000000000  0.00000000000000000000
2.00000000000000000000  0.00000000000000000000  0.00000000000000000000
0.00000000000000000000  1.00000000000000000000  0.00000000000000000000
1.00000000000000000000  1.00000000000000000000  0.00000000000000000000
2.00000000000000000000  1.00000000000000000000  0.00000000000000000000
0.00000000000000000000  2.00000000000000000000  0.00000000000000000000
1.00000000000000000000  2.00000000000000000000  0.00000000000000000000
2.00000000000000000000  2.00000000000000000000  0.00000000000000000000
2.00000000000000000000  0.00000000000000000000  0.00000000000000000000
3.00000000000000000000  0.00000000000000000000  0.00000000000000000000
4.00000000000000000000  0.00000000000000000000  0.00000000000000000000
2.00000000000000000000  1.00000000000000000000  0.00000000000000000000
3.00000000000000000000  1.00000000000000000000  0.00000000000000000000
4.00000000000000000000  1.00000000000000000000  0.00000000000000000000
2.00000000000000000000  2.00000000000000000000  0.00000000000000000000
3.00000000000000000000  2.00000000000000000000  0.00000000000000000000
4.00000000000000000000  2.00000000000000000000  0.00000000000000000000
4.00000000000000000000  0.00000000000000000000  0.00000000000000000000
5.00000000000000000000  0.00000000000000000000  0.00000000000000000000
6.00000000000000000000  0.00000000000000000000  0.00000000000000000000
4.00000000000000000000  1.00000000000000000000  0.00000000000000000000
5.00000000000000000000  1.00000000000000000000  0.00000000000000000000
6.00000000000000000000  1.00000000000000000000  0.00000000000000000000
4.00000000000000000000  2.00000000000000000000  0.00000000000000000000
5.00000000000000000000  2.00000000000000000000  0.00000000000000000000
6.00000000000000000000  2.00000000000000000000  0.00000000000000000000
6.00000000000000000000  0.00000000000000000000  0.00000000000000000000
7.00000000000000000000  0.00000000000000000000  0.00000000000000000000
8.00000000000000000000  0.00000000000000000000  0.00000000000000000000
6.00000000000000000000  1.00000000000000000000  0.00000000000000000000
7.00000000000000000000  1.00000000000000000000  0.00000000000000000000
8.00000000000000000000  1.00000000000000000000  0.00000000000000000000
6.00000000000000000000  2.00000000000000000000  0.00000000000000000000
7.00000000000000000000  2.00000000000000000000  0.00000000000000000000
8.00000000000000000000  2.00000000000000000000  0.00000000000000000000
8.00000000000000000000  0.00000000000000000000  0.00000000000000000000
9.00000000000000000000  0.00000000000000000000  0.00000000000000000000
10.00000000000000000000  0.00000000000000000000  0.00000000000000000000
8.00000000000000000000  1.00000000000000000000  0.00000000000000000000
9.00000000000000000000  1.00000000000000000000  0.00000000000000000000
10.00000000000000000000  1.00000000000000000000  0.00000000000000000000
8.00000000000000000000  2.00000000000000000000  0.00000000000000000000
9.00000000000000000000  2.00000000000000000000  0.00000000000000000000
10.00000000000000000000  2.00000000000000000000  0.00000000000000000000
10.00000000000000000000  0.00000000000000000000  0.00000000000000000000
11.00000000000000000000  0.00000000000000000000  0.00000000000000000000
12.00000000000000000000  0.00000000000000000000  0.00000000000000000000
10.00000000000000000000  1.00000000000000000000  0.00000000000000000000
11.00000000000000000000  1.00000000000000000000  0.00000000000000000000
12.00000000000000000000  1.00000000000000000000  0.00000000000000000000
10.00000000000000000000  2.00000000000000000000  0.00000000000000000000
11.00000000000000000000  2.00000000000000000000  0.00000000000000000000
12.00000000000000000000  2.00000000000000000000  0.00000000000000000000
12.00000000000000000000  0.00000000000000000000  0.00000000000000000000
13.00000000000000000000  0.00000000000000000000  0.00000000000000000000
14.00000000000000000000  0.00000000000000000000  0.00000000000000000000
12.00000000000000000000  1.00000000000000000000  0.00000000000000000000
13.00000000000000000000  1.00000000000000000000  0.00000000000000000000
14.00000000000000000000  1.00000000000000000000  0.00000000000000000000
12.00000000000000000000  2.00000000000000000000  0.00000000000000000000
13.00000000000000000000  2.00000000000000000000  0.00000000000000000000
14.00000000000000000000  2.00000000000000000000  0.00000000000000000000
14.00000000000000000000  0.00000000000000000000  0.00000000000000000000
15.00000000000000000000  0.00000000000000000000  0.00000000000000000000
16.00000000000000000000  0.00000000000000000000  0.00000000000000000000
14.00000000000000000000  1.00000000000000000000  0.00000000000000000000
15.00000000000000000000  1.00000000000000000000  0.00000000000000000000
16.00000000000000000000  1.00000000000000000000  0.00000000000000000000
14.00000000000000000000  2.00000000000000000000  0.00000000000000000000
15.00000000000000000000  2.00000000000000000000  0.00000000000000000000
16.00000000000000000000  2.00000000000000000000  0.00000000000000000000
16.00000000000000000000  0.00000000000000000000  0.00000000000000000000
17.00000000000000000000  0.00000000000000000000  0.00000000000000000000
18.00000000000000000000  0.00000000000000000000  0.00000000000000000000
16.00000000000000000000  1.00000000000000000000  0.00000000000000000000
17.00000000000000000000  1.00000000000000000000  0.00000000000000000000
18.00000000000000000000  1.00000000000000000000  0.00000000000000000000
16.00000000000000000000  2.00000000000000000000  0.00000000000000000000
17.00000000000000000000  2.00000000000000000000  0.00000000000000000000
18.00000000000000000000  2.00000000000000000000  0.00000000000000000000
18.00000000000000000000  0.00000000000000000000  0.00000000000000000000
19.00000000000000000000  0.00000000000000000000  0.00000000000000000000
20.00000000000000000000  0.00000000000000000000  0.00000000000000000000
18.00000000000000000000  1.00000000000000000000  0.00000000000000000000
19.00000000000000000000  1.00000000000000000000  0.00000000000000000000
20.00000000000000000000  1.00000000000000000000  0.00000000000000000000
18.00000000000000000000  2.00000000000000000000  0.00000000000000000000
19.00000000000000000000  2.00000000000000000000  0.00000000000000000000
20.00000000000000000000  2.00000000000000000000  0.00000000000000000000
20.00000000000000000000  0.00000000000000000000  0.00000000000000000000
21.00000000000000000000  0.00000000000000000000  0.00000000000000000000
22.00000000000000000000  0.00000000000000000000  0.00000000000000000000
20.00000000000000000000  1.00000000000000000000  0.00000000000000000000
21.00000000000000000000  1.00000000000000000000  0.00000000000000000000
22.00000000000000000000  1.00000000000000000000  0.00000000000000000000
20.00000000000000000000  2.00000000000000000000  0.00000000000000000000
21.00000000000000000000  2.00000000000000000000  0.00000000000000000000
22.00000000000000000000  2.00000000000000000000  0.00000000000000000000
22.00000000000000000000  0.00000000000000000000  0.00000000000000000000
23.00000000000000000000  0.00000000000000000000  0.00000000000000000000
24.00000000000000000000  0.00000000000000000000  0.00000000000000000000
22.00000000000000000000  1.00000000000000000000  0.00000000000000000000
23.00000000000000000000  1.00000000000000000000  0.00000000000000000000
24.00000000000000000000  1.00000000000000000000  0.00000000000000000000
22.00000000000000000000  2.00000000000000000000  0.00000000000000000000
23.00000000000000000000  2.00000000000000000000  0.00000000000000000000
24.00000000000000000000  2.00000000000000000000  0.00000000000000000000
24.00000000000000000000  0.00000000000000000000  0.00000000000000000000
25.00000000000000000000  0.00000000000000000000  0.00000000000000000000
26.00000000000000000000  0.00000000000000000000  0.00000000000000000000
24.00000000000000000000  1.00000000000000000000  0.00000000000000000000
25.00000000000000000000  1.00000000000000000000  0.00000000000000000000
26.00000000000000000000  1.00000000000000000000  0.00000000000000000000
24.00000000000000000000  2.00000000000000000000  0.00000000000000000000
25.00000000000000000000  2.00000000000000000000  0.00000000000000000000
26.00000000000000000000  2.00000000000000000000  0.00000000000000000000
26.00000000000000000000  0.00000000000000000000  0.00000000000000000000
27.00000000000000000000  0.00000000000000000000  0.00000000000000000000
28.00000000000000000000  0.00000000000000000000  0.00000000000000000000
26.00000000000000000000  1.00000000000000000000  0.00000000000000000000
27.00000000000000000000  1.00000000000000000000  0.00000000000000000000
28.00000000000000000000  1.00000000000000000000  0.00000000000000000000
26.00000000000000000000  2.00000000000000000000  0.00000000000000000000
27.00000000000000000000  2.00000000000000000000  0.00000000000000000000
28.00000000000000000000  2.00000000000000000000  0.00000000000000000000
28.00000000000000000000  0.00000000000000000000  0.00000000000000000000
29.00000000000000000000  0.00000000000000000000  0.00000000000000000000
30.00000000000000000000  0.00000000000000000000  0.00000000000000000000
28.00000000000000000000  1.00000000000000000000  0.00000000000000000000
29.00000000000000000000  1.00000000000000000000  0.00000000000000000000
30.00000000000000000000  1.00000000000000000000  0.00000000000000000000
28.00000000000000000000  2.00000000000000000000  0.00000000000000000000
29.00000000000000000000  2.00000000000000000000  0.00000000000000000000
30.00000000000000000000  2.00000000000000000000  0.00000000000000000000
30.00000000000000000000  0.00000000000000000000  0.00000000000000000000
31.00000000000000000000  0.00000000000000000000  0.00000000000000000000
[...]
POINT_DATA 1350
SCALARS  H  double
LOOKUP_TABLE default
      7.517391331673 
      7.518614919211 
      7.522165907706 
      7.517391331227 
      7.518614918765 
      7.522165907259 
      7.517391330781 
      7.518614918319 
      7.522165906813 
      7.527720230955 
      7.553819633062 
      7.580125181033 
      7.527720323111 
      7.553819754141 
      7.580125313211 
      7.527720263231 
      7.553819693946 
      7.580125287913 
      7.581004982112 
      7.611980739515 
      7.643002444471 
      7.581005150714 
      7.611981004090 
      7.643002740389 
      7.581005133133 
      7.611980854166 
      7.643002618958 
      7.643885555542 
      7.670116793110 
      7.696434108656 
      7.643885787493 
      7.670117229930 
      7.696433779567 
      7.643885702396 
      7.670116967023 
      7.696434640021 
      7.701866703731 
      7.705418422758 
      7.706642740831 
      7.701866704812 
      7.705418423840 
      7.706642741912 
      7.701866705893 
      7.705418424921 
      7.706642742993 
      7.706642740765 
      7.705419880002 
      7.701869618283 
      7.706642741846 
      7.705419881083 
      7.701869619364 
      7.706642742927 
      7.705419882164 
      7.701869620446 
      7.696443416747 
      7.670124182715 
      7.643892112950 
      7.696439319590 
      7.670123910197 
      7.643892622569 
      7.696445789432 
      7.670123682599 
      7.643892327891 
      7.643010645199 
      7.611995829579 
      7.581006329637 
      7.643010345207 
      7.611996307054 
      7.581006594725 
      7.643011506949 
      7.611995963707 
      7.581006780810 
      7.580114647073 
      7.553863239872 
      7.527621755179 
      7.580114811708 
      7.553863477921 
      7.527622004216 
      7.580114834173 
      7.553863373720 
      7.527621912257 
      7.522120348490 
      7.518569434033 
      7.517345920531 
      7.522120349098 
      7.518569434641 
      7.517345921140 
      7.522120349707 
      7.518569435250 
      7.517345921748 
      7.517345920532 
      7.518569580018 
      7.522120640460 
      7.517345921140 
      7.518569580627 
      7.522120641069 
      7.517345921749 
      7.518569581235 
      7.522120641677 
      7.527622114553 
      7.553863614458 
      7.580114987247 
      7.527622394883 
      7.553864024549 
      7.580115360720 
      7.527622246500 
      7.553863849117 
      7.580115266482 
      7.581006993237 
      7.611996546332 
      7.643011441804 
      7.581007516887 
      7.611997331702 
      7.643011477782 
      7.581007490465 
      7.611996875582 
      7.643012435072 
      7.643892838783 
      7.670125878766 
      7.696445471320 
      7.643894146704 
      7.670125742061 
      7.696441001004 
      7.643893634787 
      7.670125364649 
      7.696448275552 
      7.701872364609 
      7.705423321370 
      7.706646877177 
      7.701872322699 
      7.705423279461 
      7.706646835267 
      7.701872280790 
      7.705423237551 
      7.706646793358 
      7.706646877179 
      7.705423342608 
      7.701872407081 
      7.706646835270 
      7.705423300698 
      7.701872365172 
      7.706646793360 
      7.705423258789 
      7.701872323262 
      7.696445553216 
      7.670125990858 
      7.643893007713 
      7.696441043332 
      7.670125784205 
      7.643894233599 
      7.696448371850 
      7.670125448694 
      7.643893655082 
      7.643011770700 
      7.611997132887 
      7.581007657286 
      7.643011503348 
      7.611997347103 
      7.581007559130 
      7.643012652604 
      7.611997146368 
      7.581007853229 
      7.580115314756 
      7.553864180128 
      7.527621880880 
      7.580115371927 
      7.553864132541 
      7.527622518941 
      7.580115393772 
      7.553864186826 
      7.527621552275 
      7.522120309888 
      7.518569579021 
      7.517346249110 
      7.522120326229 
      7.518569595362 
      7.517346265450 
      7.522120342569 
      7.518569611702 
      7.517346281791 
      7.517346249143 
      7.518570060951 
      7.522121273715 
      7.517346265483 
      7.518570077292 
      7.522121290056 
      7.517346281824 
      7.518570093632 
      7.522121306396 
      7.527619941180 
      7.553863646360 
      7.580115857683 
      7.527622846135 
      7.553864229094 
      7.580115362952 
      7.527618457541 
      7.553863927810 
      7.580115590034 
      7.581007631605 
      7.611997755936 
      7.643012004037 
      7.581007562190 
      7.611997269541 
      7.643011644280 
      7.581007029925 
      7.611997568764 
      7.643011664717 
      7.643894215040 
      7.670126020086 
      7.696442123669 
      7.643893907444 
      7.670125736970 
      7.696441910930 
      7.643893986482 
      7.670125847378 
      7.696442027753 
      7.701872154112 
      7.705423130825 
      7.706646706582 
      7.701872153623 
      7.705423130335 
      7.706646706092 
      7.701872153133 
      7.705423129845 
      7.706646705602 
      7.706646706582 
      7.705423109132 
      7.701872110728 
      7.706646706092 
      7.705423108643 
      7.701872110238 
      7.706646705602 
      7.705423108153 
      7.701872109748 
      7.696441955476 
      7.670125759979 
      7.643893899965 
      7.696441929191 
      7.670125746616 
      7.643893890850 
      7.696441950788 
      7.670125751755 
      7.643893898797 
      7.643011684225 
      7.611997310962 
      7.581007511921 
      7.643011673616 
      7.611997306725 
      7.581007508557 
      7.643011682195 
      7.611997309120 
      7.581007510001 
      7.580115505313 
      7.553864104294 
      7.527622466059 
      7.580115502934 
      7.553864102726 
      7.527622464506 
      7.580115503338 
      7.553864103627 
      7.527622465444 
      7.522120822089 
      7.518569803387 
      7.517346185640 
      7.522120822079 
      7.518569803377 
      7.517346185630 
      7.522120822070 
      7.518569803368 
      7.517346185621 
      7.517346185640 
      7.518569742100 
      7.522120699515 
      7.517346185630 
      7.518569742091 
      7.522120699506 
      7.517346185621 
      7.518569742081 
      7.522120699497 
      7.527622362953 
      7.553863847981 
      7.580115503269 
      7.527622361002 
      7.553863845901 
      7.580115500012 
      7.527622362183 
      7.553863847110 
      7.580115500543 
      7.581008335844 
      7.611996221063 
      7.643015400557 
      7.581008331332 
      7.611996215302 
      7.643015386083 
      7.581008333298 
      7.611996218576 
      7.643015397832 
      7.643892415558 
      7.670124243030 
      7.696447948117 
      7.643892403077 
      7.670124224955 
      7.696447912297 
      7.643892414107 
      7.670124231957 
      7.696447941964 
      7.701873006839 
      7.705424000929 
      7.706647594063 
      7.701873006174 
      7.705424000264 
      7.706647593398 
      7.701873005510 
      7.705423999599 
      7.706647592733 
      7.706647594063 
      7.705424014341 
      7.701873033664 
      7.706647593398 
      7.705424013676 
      7.701873032999 
      7.706647592733 
      7.705424013011 
      7.701873032334 
      7.696448131061 
      7.670124559580 
      7.643892823712 
      7.696447833581 
      7.670124155694 
      7.643892368066 
      7.696447985848 
      7.670124324733 
      7.643892444711 
      7.643015817296 
      7.611996842753 
      7.581008641005 
      7.643015245324 
      7.611996034213 
      7.581008276833 
      7.643015363068 
      7.611996493797 
      7.581007723046 
      7.580116388450 
      7.553863686003 
      7.527619614672 
      7.580115120486 
      7.553863671504 
      7.527622776330 
      7.580115474385 
      7.553863701552 
      7.527616714383 
      7.522120224977 
      7.518569201707 
      7.517345579393 
      7.522120266084 
      7.518569242814 
      7.517345620500 
      7.522120307191 
      7.518569283921 
      7.517345661607 
      7.517345579379 
      7.518569049072 
      7.522119919720 
      7.517345620486 
      7.518569090178 
      7.522119960827 
      7.517345661593 
      7.518569131285 
      7.522120001933 
      7.527619224708 
      7.553863150251 
      7.580115854767 
      7.527622382444 
      7.553863135581 
      7.580114576542 
      7.527616321307 
      7.553863162412 
      7.580114954734 
      7.581007762804 
      7.611995849637 
      7.643014719938 
      7.581007392192 
      7.611995031221 
      7.643014160973 
      7.581006843627 
      7.611995503402 
      7.643014247481 
      7.643891375059 
      7.670122746772 
      7.696446351937 
      7.643890931008 
      7.670122339530 
      7.696446057874 
      7.643890979098 
      7.670122514153 
      7.696446199858 
      7.701871207795 
      7.705421154990 
      7.706643701229 
      7.701871206981 
      7.705421154175 
      7.706643700414 
      7.701871206166 
      7.705421153361 
      7.706643699599 
      7.706643701216 
      7.705419070884 
      7.701867039597 
      7.706643700402 
      7.705419070070 
      7.701867038783 
      7.706643699587 
      7.705419069255 
      7.701867037968 
      7.696439812093 
      7.670115674143 
      7.643884213957 
      7.696439776915 
      7.670115656316 
      7.643884201713 
      7.696439805905 
      7.670115663188 
      7.643884212192 
      7.643006458468 
      7.611979871727 
      7.581005925873 
      7.643006444567 
      7.611979866069 
      7.581005921458 
      7.643006455748 
      7.611979869403 
      7.581005923159 
      7.580125296115 
      7.553819428660 
      7.527720131588 
      7.580125292988 
      7.553819426535 
      7.527720129644 
      7.580125293284 
      7.553819427768 
      7.527720130862 
      7.522165667352 
      7.518614679308 
      7.517391092220 
      7.522165667356 
      7.518614679313 
      7.517391092224 
      7.522165667361 
      7.518614679317 
      7.517391092229 
      7.517391330781 
      7.518614917302 
      7.522165904779 
      7.517391330459 
      7.518614916981 
      7.522165904458 
      7.517391330138 
      7.518614916660 
      7.522165904137 
      7.527720318046 
      7.553819728301 
      7.580125252110 
      7.527720276881 
      7.553819729919 
      7.580125240561 
      7.527720275676 
      7.553819694147 
      7.580125399748 
      7.581005210323 
      7.611980891984 
      7.643002948008 
      7.581004988781 
      7.611981006328 
      7.643002245919 
      7.581005158546 
      7.611980826015 
      7.643002726665 
      7.643885589091 
      7.670117103574 
      7.696434185193 
      7.643885730877 
      7.670117236303 
      7.696432666429 
      7.643884754430 
      7.670117315731 
      7.696432973618 
      7.701867211420 
      7.705418677976 
      7.706642743577 
      7.701867270266 
      7.705418736822 
      7.706642802423 
      7.701867329113 
      7.705418795669 
      7.706642861270 
      7.706642743524 
      7.705419517906 
      7.701868891333 
      7.706642802368 
      7.705419576750 
      7.701868950177 
      7.706642861213 
      7.705419635595 
      7.701869009022 
      7.696444184929 
      7.670123244561 
      7.643893659441 
      7.696437482321 
      7.670124159885 
      7.643892660628 
      7.696470308508 
      7.670119326988 
      7.643900611724 
      7.643010451377 
      7.611996109778 
      7.581006524989 
      7.643009420349 
      7.611996322933 
      7.581006334332 
      7.643009979226 
      7.611996088796 
      7.581006077537 
      7.580114870255 
      7.553863359287 
      7.527622122363 
      7.580114600058 
      7.553863440589 
      7.527621894984 
      7.580115160777 
      7.553863297787 
      7.527621995468 
      7.522120342563 
      7.518569431677 
      7.517345921747 
      7.522120348591 
      7.518569437706 
      7.517345927776 
      7.522120354620 
      7.518569443734 
      7.517345933804 
      7.517345921750 
      7.518569576402 
      7.522120632010 
      7.517345927779 
      7.518569582431 
      7.522120638039 
      7.517345933807 
      7.518569588460 
      7.522120644067 
      7.527622493420 
      7.553863866655 
      7.580115459308 
      7.527622268529 
      7.553863961234 
      7.580115016046 
      7.527622352618 
      7.553863787060 
      7.580115853137 
      7.581007500201 
      7.611997021721 
      7.643011620912 
      7.581007082370 
      7.611997352708 
      7.643010066684 
      7.581007072237 
      7.611996944070 
      7.643011138838 
      7.643894829663 
      7.670125127091 
      7.696445900563 
      7.643894252265 
      7.670125970851 
      7.696438507543 
      7.643900920718 
      7.670121456635 
      7.696471237954 
      7.701872153401 
      7.705423173871 
      7.706646793387 
      7.701872091353 
      7.705423111823 
      7.706646731338 
      7.701872029305 
      7.705423049775 
      7.706646669290 
      7.706646793388 
      7.705423195108 
      7.701872195874 
      7.706646731340 
      7.705423133060 
      7.701872133826 
      7.706646669291 
      7.705423071012 
      7.701872071778 
      7.696445969333 
      7.670125199210 
      7.643894953053 
      7.696438589340 
      7.670126030930 
      7.643894336301 
      7.696471353291 
      7.670121539679 
      7.643901232701 
      7.643011718141 
      7.611997211508 
      7.581007391400 
      7.643010213885 
      7.611997441367 
      7.581007406491 
      7.643011247751 
      7.611997209687 
      7.581007459272 
      7.580115732949 
      7.553864110692 
      7.527622339906 
      7.580115114334 
      7.553864149222 
      7.527622868528 
      7.580116613195 
      7.553863826251 
      7.527623279397 
      7.522120142226 
      7.518569511325 
      7.517346281380 
      7.522119851620 
      7.518569220719 
      7.517345990774 
      7.522119561014 
      7.518568930113 
      7.517345700168 
      7.517346279488 
      7.518570873254 
      7.522122867977 
      7.517345988891 
      7.518570582658 
      7.522122577381 
      7.517345698295 
      7.518570292062 
      7.522122286784 
      7.527622423563 
      7.553864404005 
      7.580114844095 
      7.527623786794 
      7.553864076162 
      7.580115098236 
      7.527595633377 
      7.553868354219 
      7.580106068304 
      7.581008634998 
      7.611997283820 
      7.643011911362 
      7.581008367094 
      7.611997279751 
      7.643011868402 
      7.581010860076 
      7.611997060758 
      7.643012775492 
      7.643893974384 
      7.670125826144 
      7.696441951805 
      7.643894215399 
      7.670125764113 
      7.696442043092 
      7.643893546892 
      7.670125907537 
      7.696441926813 
      7.701872154549 
      7.705423130554 
      7.706646705602 
      7.701872152222 
      7.705423128226 
      7.706646703275 
      7.701872149895 
      7.705423125899 
      7.706646700948 
      7.706646705602 
      7.705423109160 
      7.701872111763 
      7.706646703275 
      7.705423106833 
      7.701872109436 
      7.706646700948 
      7.705423104506 
      7.701872107109 
      7.696441931439 
      7.670125750242 
      7.643893889746 
      7.696441932374 
      7.670125750606 
      7.643893893568 
      7.696441934540 
      7.670125751569 
      7.643893897481 
      7.643011675181 
      7.611997307260 
      7.581007509469 
      7.643011675068 
      7.611997308078 
      7.581007509543 
      7.643011675323 
      7.611997309055 
      7.581007509570 
      7.580115504411 
      7.553864102928 
      7.527622464845 
      7.580115502964 
      7.553864103249 
      7.527622464949 
      7.580115501624 
      7.553864103636 
      7.527622465026 
      7.522120822059 
      7.518569803362 
      7.517346185621 
      7.522120822039 
      7.518569803342 
      7.517346185601 
      7.522120822018 
      7.518569803321 
      7.517346185580 
      7.517346185621 
      7.518569742072 
      7.522120699479 
      7.517346185601 
      7.518569742052 
      7.522120699458 
      7.517346185580 
      7.518569742031 
      7.522120699437 
      7.527622361456 
      7.553863846166 
      7.580115501994 
      7.527622361596 
      7.553863846600 
      7.580115500035 
      7.527622361702 
      7.553863847124 
      7.580115498216 
      7.581008332581 
      7.611996216032 
      7.643015388154 
      7.581008332677 
      7.611996217161 
      7.643015388023 
      7.581008332705 
      7.611996218522 
      7.643015388401 
      7.643892401591 
      7.670124229843 
      7.696447915422 
      7.643892406900 
      7.670124230388 
      7.696447916748 
      7.643892412268 
      7.670124231834 
      7.696447919659 
      7.701873008641 
      7.705424001165 
      7.706647592733 
      7.701873005395 
      7.705423997918 
      7.706647589487 
      7.701873002149 
      7.705423994672 
      7.706647586240 
      7.706647592733 
      7.705424013949 
      7.701873034209 
      7.706647589487 
      7.705424010702 
      7.701873030963 
      7.706647586240 
      7.705424007456 
      7.701873027716 
      7.696447858651 
      7.670124294010 
      7.643892410004 
      7.696448033674 
      7.670124192568 
      7.643892780248 
      7.696447864793 
      7.670124377539 
      7.643892111914 
      7.643015499853 
      7.611996220524 
      7.581008950570 
      7.643015584466 
      7.611996038100 
      7.581009583259 
      7.643016304953 
      7.611996115117 
      7.581011130840 
      7.580114932853 
      7.553864116755 
      7.527621341285 
      7.580114666955 
      7.553863647900 
      7.527624064890 
      7.580107193071 
      7.553867563367 
      7.527595920732 
      7.522121442243 
      7.518569850785 
      7.517345660283 
      7.522120999154 
      7.518569407696 
      7.517345217194 
      7.522120556065 
      7.518568964607 
      7.517344774105 
      7.517345660442 
      7.518569697241 
      7.522121134996 
      7.517345217352 
      7.518569254152 
      7.522120691906 
      7.517344774263 
      7.518568811062 
      7.522120248817 
      7.527620923064 
      7.553863587517 
      7.580114333362 
      7.527623684813 
      7.553863106068 
      7.580114159629 
      7.527595441208 
      7.553867048330 
      7.580106468138 
      7.581008118183 
      7.611995177148 
      7.643014416150 
      7.581008659774 
      7.611995055680 
      7.643014506000 
      7.581010470110 
      7.611994997452 
      7.643015181222 
      7.643890933550 
      7.670122474646 
      7.696446086821 
      7.643891352850 
      7.670122379083 
      7.696446249593 
      7.643890507693 
      7.670122559566 
      7.696446088577 
      7.701871206250 
      7.705421153401 
      7.706643699597 
      7.701871203017 
      7.705421150168 
      7.706643696363 
      7.701871199783 
      7.705421146934 
      7.706643693130 
      7.706643699580 
      7.705419070794 
      7.701867041053 
      7.706643696347 
      7.705419067561 
      7.701867037820 
      7.706643693113 
      7.705419064328 
      7.701867034586 
      7.696439779996 
      7.670115661138 
      7.643884200310 
      7.696439781240 
      7.670115661635 
      7.643884205439 
      7.696439784051 
      7.670115662928 
      7.643884210650 
      7.643006446844 
      7.611979866658 
      7.581005922875 
      7.643006446385 
      7.611979867880 
      7.581005922789 
      7.643006446464 
      7.611979869290 
      7.581005922644 
      7.580125295037 
      7.553819426804 
      7.527720130060 
      7.580125292961 
      7.553819427232 
      7.527720130292 
      7.580125291054 
      7.553819427744 
      7.527720130501 
      7.522165667373 
      7.518614679323 
      7.517391092229 
      7.522165667380 
      7.518614679330 
      7.517391092235 
      7.522165667386 
      7.518614679336 
      7.517391092242 
      7.517391330138 
      7.518614917356 
      7.522165905529 
      7.517391330263 
      7.518614917481 
      7.522165905654 