# vtk DataFile Version 2.0
NDG-FEM NonhydrostaticStandingWave2d Simulation
ASCII
DATASET UNSTRUCTURED_GRID

POINTS 405 double
0.00000000000000000000  0.00000000000000000000  0.00000000000000000000
1.00000000000000000000  0.00000000000000000000  0.00000000000000000000
2.00000000000000000000  0.00000000000000000000  0.00000000000000000000
0.00000000000000000000  1.00000000000000000000  0.00000000000000000000
1.00000000000000000000  1.00000000000000000000  0.00000000000000000000
2.00000000000000000000  1.00000000000000000000  0.00000000000000000000
0.00000000000000000000  2.00000000000000000000  0.00000000000000000000
1.00000000000000000000  2.00000000000000000000  0.00000000000000000000
2.00000000000000000000  2.00000000000000000000  0.00000000000000000000
2.00000000000000000000  0.00000000000000000000  0.00000000000000000000
3.00000000000000000000  0.00000000000000000000  0.00000000000000000000
4.00000000000000000000  0.00000000000000000000  0.00000000000000000000
2.00000000000000000000  1.00000000000000000000  0.00000000000000000000
3.00000000000000000000  1.00000000000000000000  0.00000000000000000000
4.00000000000000000000  1.00000000000000000000  0.00000000000000000000
2.00000000000000000000  2.00000000000000000000  0.00000000000000000000
3.00000000000000000000  2.00000000000000000000  0.00000000000000000000
4.00000000000000000000  2.00000000000000000000  0.00000000000000000000
4.00000000000000000000  0.00000000000000000000  0.00000000000000000000
5.00000000000000000000  0.00000000000000000000  0.00000000000000000000
6.00000000000000000000  0.00000000000000000000  0.00000000000000000000
4.00000000000000000000  1.00000000000000000000  0.00000000000000000000
5.00000000000000000000  1.00000000000000000000  0.00000000000000000000
6.00000000000000000000  1.00000000000000000000  0.00000000000000000000
4.00000000000000000000  2.00000000000000000000  0.00000000000000000000
5.00000000000000000000  2.00000000000000000000  0.00000000000000000000
6.00000000000000000000  2.00000000000000000000  0.00000000000000000000
6.00000000000000000000  0.00000000000000000000  0.00000000000000000000
7.00000000000000000000  0.00000000000000000000  0.00000000000000000000
8.00000000000000000000  0.00000000000000000000  0.00000000000000000000
6.00000000000000000000  1.00000000000000000000  0.00000000000000000000
7.00000000000000000000  1.00000000000000000000  0.00000000000000000000
8.00000000000000000000  1.00000000000000000000  0.00000000000000000000
6.00000000000000000000  2.00000000000000000000  0.00000000000000000000
7.00000000000000000000  2.00000000000000000000  0.00000000000000000000
8.00000000000000000000  2.00000000000000000000  0.00000000000000000000
8.00000000000000000000  0.00000000000000000000  0.00000000000000000000
9.00000000000000000000  0.00000000000000000000  0.00000000000000000000
10.00000000000000000000  0.00000000000000000000  0.00000000000000000000
8.00000000000000000000  1.00000000000000000000  0.00000000000000000000
9.00000000000000000000  1.00000000000000000000  0.00000000000000000000
10.00000000000000000000  1.00000000000000000000  0.00000000000000000000
8.00000000000000000000  2.00000000000000000000  0.00000000000000000000
9.00000000000000000000  2.00000000000000000000  0.00000000000000000000
10.00000000000000000000  2.00000000000000000000  0.00000000000000000000
10.00000000000000000000  0.00000000000000000000  0.00000000000000000000
11.00000000000000000000  0.00000000000000000000  0.00000000000000000000
12.00000000000000000000  0.00000000000000000000  0.00000000000000000000
10.00000000000000000000  1.00000000000000000000  0.00000000000000000000
11.00000000000000000000  1.00000000000000000000  0.00000000000000000000
12.00000000000000000000  1.00000000000000000000  0.00000000000000000000
10.00000000000000000000  2.00000000000000000000  0.00000000000000000000
11.00000000000000000000  2.00000000000000000000  0.00000000000000000000
12.00000000000000000000  2.00000000000000000000  0.00000000000000000000
12.00000000000000000000  0.00000000000000000000  0.00000000000000000000
13.00000000000000000000  0.00000000000000000000  0.00000000000000000000
14.00000000000000000000  0.00000000000000000000  0.00000000000000000000
12.00000000000000000000  1.00000000000000000000  0.00000000000000000000
13.00000000000000000000  1.00000000000000000000  0.00000000000000000000
14.00000000000000000000  1.00000000000000000000  0.00000000000000000000
12.00000000000000000000  2.00000000000000000000  0.00000000000000000000
13.00000000000000000000  2.00000000000000000000  0.00000000000000000000
14.00000000000000000000  2.00000000000000000000  0.00000000000000000000
14.00000000000000000000  0.00000000000000000000  0.00000000000000000000
15.00000000000000000000  0.00000000000000000000  0.00000000000000000000
16.00000000000000000000  0.00000000000000000000  0.00000000000000000000
14.00000000000000000000  1.00000000000000000000  0.00000000000000000000
15.00000000000000000000  1.00000000000000000000  0.00000000000000000000
16.00000000000000000000  1.00000000000000000000  0.00000000000000000000
14.00000000000000000000  2.00000000000000000000  0.00000000000000000000
15.00000000000000000000  2.00000000000000000000  0.00000000000000000000
16.00000000000000000000  2.00000000000000000000  0.00000000000000000000
16.00000000000000000000  0.00000000000000000000  0.00000000000000000000
17.00000000000000000000  0.00000000000000000000  0.00000000000000000000
18.00000000000000000000  0.00000000000000000000  0.00000000000000000000
16.00000000000000000000  1.00000000000000000000  0.00000000000000000000
17.00000000000000000000  1.00000000000000000000  0.00000000000000000000
18.00000000000000000000  1.00000000000000000000  0.00000000000000000000
16.00000000000000000000  2.00000000000000000000  0.00000000000000000000
17.00000000000000000000  2.00000000000000000000  0.00000000000000000000
18.00000000000000000000  2.00000000000000000000  0.00000000000000000000
18.00000000000000000000  0.00000000000000000000  0.00000000000000000000
19.00000000000000000000  0.00000000000000000000  0.00000000000000000000
20.00000000000000000000  0.00000000000000000000  0.00000000000000000000
18.00000000000000000000  1.00000000000000000000  0.00000000000000000000
19.00000000000000000000  1.00000000000000000000  0.00000000000000000000
20.00000000000000000000  1.00000000000000000000  0.00000000000000000000
18.00000000000000000000  2.00000000000000000000  0.00000000000000000000
19.00000000000000000000  2.00000000000000000000  0.00000000000000000000
20.00000000000000000000  2.00000000000000000000  0.00000000000000000000
20.00000000000000000000  0.00000000000000000000  0.00000000000000000000
21.00000000000000000000  0.00000000000000000000  0.00000000000000000000
22.00000000000000000000  0.00000000000000000000  0.00000000000000000000
20.00000000000000000000  1.00000000000000000000  0.00000000000000000000
21.00000000000000000000  1.00000000000000000000  0.00000000000000000000
22.00000000000000000000  1.00000000000000000000  0.00000000000000000000
20.00000000000000000000  2.00000000000000000000  0.00000000000000000000
21.00000000000000000000  2.00000000000000000000  0.00000000000000000000
22.00000000000000000000  2.00000000000000000000  0.00000000000000000000
22.00000000000000000000  0.00000000000000000000  0.00000000000000000000
23.00000000000000000000  0.00000000000000000000  0.00000000000000000000
24.00000000000000000000  0.00000000000000000000  0.00000000000000000000
22.00000000000000000000  1.00000000000000000000  0.00000000000000000000
23.00000000000000000000  1.00000000000000000000  0.00000000000000000000
24.00000000000000000000  1.00000000000000000000  0.00000000000000000000
22.00000000000000000000  2.00000000000000000000  0.00000000000000000000
23.00000000000000000000  2.00000000000000000000  0.00000000000000000000
24.00000000000000000000  2.00000000000000000000  0.00000000000000000000
24.00000000000000000000  0.00000000000000000000  0.00000000000000000000
25.00000000000000000000  0.00000000000000000000  0.00000000000000000000
26.00000000000000000000  0.00000000000000000000  0.00000000000000000000
24.00000000000000000000  1.00000000000000000000  0.00000000000000000000
25.00000000000000000000  1.00000000000000000000  0.00000000000000000000
26.00000000000000000000  1.00000000000000000000  0.00000000000000000000
24.00000000000000000000  2.00000000000000000000  0.00000000000000000000
25.00000000000000000000  2.00000000000000000000  0.00000000000000000000
26.00000000000000000000  2.00000000000000000000  0.00000000000000000000
26.00000000000000000000  0.00000000000000000000  0.00000000000000000000
27.00000000000000000000  0.00000000000000000000  0.00000000000000000000
28.00000000000000000000  0.00000000000000000000  0.00000000000000000000
26.00000000000000000000  1.00000000000000000000  0.00000000000000000000
27.00000000000000000000  1.00000000000000000000  0.00000000000000000000
28.00000000000000000000  1.00000000000000000000  0.00000000000000000000
26.00000000000000000000  2.00000000000000000000  0.00000000000000000000
27.00000000000000000000  2.00000000000000000000  0.00000000000000000000
28.00000000000000000000  2.00000000000000000000  0.00000000000000000000
28.00000000000000000000  0.00000000000000000000  0.00000000000000000000
29.00000000000000000000  0.00000000000000000000  0.00000000000000000000
30.00000000000000000000  0.00000000000000000000  0.00000000000000000000
28.00000000000000000000  1.00000000000000000000  0.00000000000000000000
29.00000000000000000000  1.00000000000000000000  0.00000000000000000000
30.00000000000000000000  1.00000000000000000000  0.00000000000000000000
28.00000000000000000000  2.00000000000000000000  0.00000000000000000000
29.00000000000000000000  2.00000000000000000000  0.00000000000000000000
30.00000000000000000000  2.00000000000000000000  0.00000000000000000000
0.00000000000000000000  2.00000000000000000000  0.00000000000000000000
1.00000000000000000000  2.00000000000000000000  0.00000000000000000000
[...]
POINT_DATA 405
SCALARS  H  double
LOOKUP_TABLE default
      7.683974619755 
      7.680701491540 
      7.670903495890 
      7.683896392083 
      7.680708618380 
      7.670874682559 
      7.683936386500 
      7.680700313830 
      7.670889138441 
      7.671056912934 
      7.655753245329 
      7.635852193335 
      7.671032444622 
      7.655764640137 
      7.635845717516 
      7.671042076636 
      7.655768030970 
      7.635851936460 
      7.636191676715 
      7.613618466792 
      7.590404027941 
      7.636182428860 
      7.613617349896 
      7.590404639348 
      7.636190115160 
      7.613609499895 
      7.590403510007 
      7.590788113748 
      7.569117441611 
      7.551700891197 
      7.590787561379 
      7.569120690685 
      7.551699620081 
      7.590790085170 
      7.569127273033 
      7.551695834028 
      7.551957623369 
      7.540382716711 
      7.536563683376 
      7.551954176707 
      7.540380330313 
      7.536566375103 
      7.551948458721 
      7.540376138107 
      7.536569800670 
      7.536559194803 
      7.540466748685 
      7.552091548151 
      7.536562490886 
      7.540467120024 
      7.552090726845 
      7.536568428995 
      7.540468670949 
      7.552087286666 
      7.551838975224 
      7.569254763484 
      7.590915607095 
      7.551837975490 
      7.569254952225 
      7.590915939466 
      7.551834054250 
      7.569255709714 
      7.590916703403 
      7.590531221210 
      7.613750624291 
      7.636314394686 
      7.590531358804 
      7.613750416490 
      7.636314578996 
      7.590531445411 
      7.613749848673 
      7.636314939353 
      7.635969859244 
      7.655819186464 
      7.671039107232 
      7.635970019251 
      7.655819192260 
      7.671039949043 
      7.635970450846 
      7.655819408506 
      7.671040319566 
      7.670853958793 
      7.680714562729 
      7.683881167962 
      7.670854619381 
      7.680713745686 
      7.683882190906 
      7.670854900793 
      7.680712585157 
      7.683882033469 
      7.683878583414 
      7.680783423759 
      7.670985090581 
      7.683880109762 
      7.680784628475 
      7.670984134156 
      7.683881002167 
      7.680788864057 
      7.670978781501 
      7.671170964025 
      7.655959127286 
      7.636079268815 
      7.671170464660 
      7.655954533071 
      7.636083122473 
      7.671164444612 
      7.655946008893 
      7.636092195801 
      7.636422309808 
      7.613843919358 
      7.590641570385 
      7.636428457758 
      7.613852601315 
      7.590624564042 
      7.636437145939 
      7.613866852214 
      7.590616232191 
      7.591026619934 
      7.569342546225 
      7.551895874094 
      7.591012311738 
      7.569335051374 
      7.551874154483 
      7.591004873387 
      7.569317041295 
      7.551860171457 
      7.552141671979 
      7.540492356884 
      7.536588894934 
      7.552112124955 
      7.540492430793 
      7.536539643383 
      7.552101677882 
      7.540480714029 
      7.536551703595 
      7.683954704642 
      7.680697554103 
      7.670895364360 
      7.683955829494 
      7.680714124773 
      7.670887555715 
      7.683951883583 
      7.680698602291 
      7.670891963702 
      7.671040978261 
      7.655766734390 
      7.635853842147 
      7.671041678910 
      7.655761315369 
      7.635846838269 
      7.671045395425 
      7.655755101295 
      7.635849630955 
      7.636191993486 
      7.613608644081 
      7.590403761350 
      7.636188323550 
      7.613607364328 
      7.590403421723 
      7.636193214427 
      7.613610835500 
      7.590398508692 
      7.590789810077 
      7.569126905017 
      7.551696985442 
      7.590791559490 
      7.569127657993 
      7.551693324665 
      7.590785874965 
      7.569121493918 
      7.551693792425 
      7.551949999823 
      7.540376136081 
      7.536569299530 
      7.551945516815 
      7.540375372015 
      7.536572488342 
      7.551947162896 
      7.540378242967 
      7.536573747802 
      7.536567979778 
      7.540468737760 
      7.552087384611 
      7.536572944884 
      7.540469225682 
      7.552084688430 
      7.536575340641 
      7.540468536428 
      7.552082875575 
      7.551834185561 
      7.569255663545 
      7.590916649173 
      7.551830916692 
      7.569256507667 
      7.590917778714 
      7.551828913680 
      7.569257486646 
      7.590918621255 
      7.590531448407 
      7.613749887494 
      7.636314818071 
      7.590531715481 
      7.613748918383 
      7.636315169413 
      7.590531713134 
      7.613747913756 
      7.636315179597 
      7.635970344918 
      7.655819488368 
      7.671040282208 
      7.635971269935 
      7.655820245885 
      7.671038905822 
      7.635972168060 
      7.655821528544 
      7.671036200787 
      7.670854758063 
      7.680712565600 
      7.683882529053 
      7.670853579740 
      7.680711752671 
      7.683885152951 
      7.670851016033 
      7.680711308397 
      7.683890444940 
      7.683881253232 
      7.680788572532 
      7.670978473652 
      7.683883678170 
      7.680790796070 
      7.670974513310 
      7.683887496196 
      7.680790263365 
      7.670972215745 
      7.671164106142 
      7.655947104907 
      7.636093521064 
      7.671160485575 
      7.655942920067 
      7.636091931089 
      7.671161094707 
      7.655942716244 
      7.636074511127 
      7.636437371287 
      7.613863873624 
      7.590619569201 
      7.636434498273 
      7.613862882140 
      7.590637500547 
      7.636418223101 
      7.613862148507 
      7.590645862331 
      7.591008106533 
      7.569315313737 
      7.551862539031 
      7.591026032510 
      7.569314143034 
      7.551839227834 
      7.591026884225 
      7.569325280153 
      7.551844541262 
      7.552101268319 
      7.540484645332 
      7.536542358434 
      7.552091774109 
      7.540475270592 
      7.536543872895 
      7.552078880710 
      7.540490233766 
      7.536514825535 
      7.683974215434 
      7.680685547890 
      7.670902960790 
      7.683974285325 
      7.680695362953 
      7.670895678216 
      7.683831914540 
      7.680725305048 
      7.670864627606 
      7.671043639172 
      7.655754632334 
      7.635852416623 
      7.671039408503 
      7.655750382804 
      7.635855090399 
      7.671019694292 
      7.655759361542 
      7.635844599992 
      7.636196311597 
      7.613610335325 
      7.590400240475 
      7.636198445195 
      7.613616482729 
      7.590393916420 
      7.636186941551 
      7.613622767374 
      7.590390351256 
      7.590788001260 
      7.569121462345 
      7.551693545347 
      7.590777577302 
      7.569111806995 
      7.551696954836 
      7.590769592163 
      7.569108737350 
      7.551698361869 
      7.551946908234 
      7.540377936960 
      7.536573939237 
      7.551951937326 
      7.540382192138 
      7.536574321506 
      7.551952021351 
      7.540383855886 
      7.536575725021 
      7.536575648017 
      7.540468655014 
      7.552082660948 
      7.536576653991 
      7.540467316351 
      7.552081597959 
      7.536577259599 
      7.540466158669 
      7.552081820455 
      7.551828734340 
      7.569257510700 
      7.590918597252 
      7.551827801849 
      7.569258477462 
      7.590918965869 
      7.551828028481 
      7.569258750372 
      7.590919151582 
      7.590531702607 
      7.613747912129 
      7.636315245528 
      7.590531353112 
      7.613747208258 
      7.636314820332 
      7.590531320411 
      7.613746983371 
      7.636314600930 
      7.635972216979 
      7.655821460390 
      7.671036075863 
      7.635972434031 
      7.655822932253 
      7.671034421359 
      7.635972420117 
      7.655823532545 
      7.671034322623 
      7.670850960838 
      7.680711605529 
      7.683890017830 
      7.670848684983 
      7.680709970184 
      7.683897503539 
      7.670848158583 
      7.680708832362 
      7.683901466928 
      7.683886941454 
      7.680790219207 
      7.670973473611 
      7.683892830320 
      7.680789533666 
      7.670966445166 
      7.683896489916 
      7.680789060633 
      7.670962458340 
      7.671161925375 
      7.655941838566 
      7.636074983966 
      7.671158170467 
      7.655944532159 
      7.636069805594 
      7.671156731252 
      7.655946248366 
      7.636067653977 
      7.636419153414 
      7.613863342299 
      7.590645844097 
      7.636412218347 
      7.613852620452 
      7.590658471005 
      7.636410495809 
      7.613849995886 
      7.590656822440 
      7.591027186000 
      7.569324494627 
      7.551844741176 
      7.591036783980 
      7.569329683864 
      7.551863742411 
      7.591036278556 
      7.569337896528 
      7.551861116697 
      7.552083604048 
      7.540489667332 
      7.536535551986 
      7.552115952603 
      7.540491503536 
      7.536581086466 
      7.552113826260 
      7.540495571982 
      7.536544104049 
SCALARS  HU  double
LOOKUP_TABLE default
     -0.000600858862 
      0.181636231783 
      0.345623812629 
     -0.000661073634 
      0.181628836127 
      0.345713342989 
     -0.000615214595 
      0.181612536488 
      0.345712495428 
      0.345005376872 
      0.473140863696 
      0.557184311374 
      0.344897552728 
      0.473145695306 
      0.557173077136 
      0.344935321266 
      0.473194946053 
      0.557191460091 
      0.557072050326 
      0.582348262098 
      0.554460342182 
      0.557008864537 
      0.582337429969 
      0.554461339171 
      0.557050052022 
      0.582276270832 
      0.554454609529 
      0.555178813612 
      0.468447552408 
      0.340596537915 
      0.555162485169 
      0.468470653070 
      0.340596136429 
      0.555193918492 
      0.468513058876 
      0.340564376597 
      0.341523619011 
      0.177888651755 
     -0.000838433147 
      0.341495578436 
      0.177872964465 
     -0.000820364034 
      0.341445961865 
      0.177846054410 
     -0.000792675639 
     -0.000031537233 
     -0.178630963717 
     -0.342324233500 
     -0.000007764071 
     -0.178628411699 
     -0.342331487026 
      0.000044824179 
     -0.178618898786 
     -0.342356190575 
     -0.341380415218 
     -0.469564407104 
     -0.556365069844 
     -0.341389231620 
     -0.469563136539 
     -0.556362863338 
     -0.341419262766 
     -0.469557074200 
     -0.556358986004 
     -0.555651341550 
     -0.583505712970 
     -0.558129306526 
     -0.555649428319 
     -0.583507051415 
     -0.558130313597 
     -0.555649349283 
     -0.583509750166 
     -0.558128985818 
     -0.558220235007 
     -0.473624098937 
     -0.344913731604 
     -0.558218713129 
     -0.473623762421 
     -0.344920345357 
     -0.558215691466 
     -0.473625279437 
     -0.344924805847 
     -0.346088457734 
     -0.181285893055 
      0.000412230554 
     -0.346092145336 
     -0.181279958673 
      0.000412648086 
     -0.346095379007 
     -0.181270097436 
      0.000410761004 
     -0.001168065666 
      0.180536553742 
      0.345190415601 
     -0.001174127299 
      0.180522948514 
      0.345202097648 
     -0.001187290208 
      0.180489822814 
      0.345234779994 
      0.344060581364 
      0.472611336153 
      0.557240054965 
      0.344065789557 
      0.472648960594 
      0.557223012162 
      0.344109028947 
      0.472713325524 
      0.557175803191 
      0.557144803246 
      0.582623879406 
      0.554793016059 
      0.557084393977 
      0.582567990631 
      0.554875444117 
      0.557040619730 
      0.582464047317 
      0.554898848643 
      0.555554459388 
      0.468858407726 
      0.340981513845 
      0.555571088684 
      0.468905969286 
      0.341069903873 
      0.555599965239 
      0.468976487720 
      0.341103258473 
      0.341894268384 
      0.178560350135 
     -0.000325331169 
      0.341894251218 
      0.178603654121 
     -0.000423642711 
      0.341961759124 
      0.178657205333 
     -0.000380265824 
     -0.000806417853 
      0.181693455578 
      0.345641803049 
     -0.000619716612 
      0.181716550871 
      0.345585353447 
     -0.000747988559 
      0.181553650620 
      0.345646170470 
      0.344885218220 
      0.473155410138 
      0.557210497877 
      0.344917200797 
      0.473119502597 
      0.557175792516 
      0.344964030615 
      0.473068672732 
      0.557199147147 
      0.557059417853 
      0.582277398283 
      0.554451255572 
      0.557057865380 
      0.582268383648 
      0.554444236006 
      0.557103448693 
      0.582291755654 
      0.554413545110 
      0.555188298915 
      0.468511880524 
      0.340572007578 
      0.555197897820 
      0.468515559764 
      0.340548502746 
      0.555157606789 
      0.468473196137 
      0.340554159473 
      0.341457350570 
      0.177845647657 
     -0.000796238024 
      0.341423337713 
      0.177841286246 
     -0.000769817932 
      0.341440796966 
      0.177861859669 
     -0.000757745851 
      0.000041845205 
     -0.178618467525 
     -0.342355207202 
      0.000083144570 
     -0.178615759008 
     -0.342377299079 
      0.000103147301 
     -0.178621882027 
     -0.342392964114 
     -0.341417961119 
     -0.469557528191 
     -0.556359067702 
     -0.341443881794 
     -0.469549713436 
     -0.556359117505 
     -0.341458704695 
     -0.469540383167 
     -0.556364962512 
     -0.555649327639 
     -0.583509640897 
     -0.558128490104 
     -0.555653265797 
     -0.583510251079 
     -0.558124004717 
     -0.555663087827 
     -0.583508380936 
     -0.558115294081 
     -0.558215477624 
     -0.473625739775 
     -0.344924832355 
     -0.558213111466 
     -0.473633006881 
     -0.344914791071 
     -0.558210824978 
     -0.473645767488 
     -0.344893501118 
     -0.346094397599 
     -0.181269710249 
      0.000408309868 
     -0.346084937016 
     -0.181262169023 
      0.000385850667 
     -0.346064265528 
     -0.181256100708 
      0.000337419593 
     -0.001187656996 
      0.180491496807 
      0.345238165686 
     -0.001209335839 
      0.180471779443 
      0.345269010778 
     -0.001243457093 
      0.180473866066 
      0.345294244967 
      0.344111782689 
      0.472707012147 
      0.557155866278 
      0.344138358561 
      0.472738280202 
      0.557166559925 
      0.344138862204 
      0.472731830896 
      0.557290401431 
      0.557031230879 
      0.582485853837 
      0.554871101552 
      0.557057946652 
      0.582489776870 
      0.554764995671 
      0.557159400041 
      0.582506974550 
      0.554688219342 
      0.555575021809 
      0.468978456757 
      0.341086563736 
      0.555468530329 
      0.469005736699 
      0.341306487452 
      0.555450937312 
      0.468944158507 
      0.341245015436 
      0.341904538647 
      0.178608212299 
     -0.000446856374 
      0.342000188170 
      0.178713279605 
     -0.000300572093 
      0.341946603155 
      0.178663480392 
     -0.000612790658 
     -0.000791209041 
      0.181602912283 
      0.345604489523 
     -0.001023025291 
      0.181565135136 
      0.345667491018 
     -0.001141924248 
      0.181780362038 
      0.345629227712 
      0.345021926462 
      0.473070094696 
      0.557224534230 
      0.344895742668 
      0.473038890102 
      0.557220624989 
      0.344780714657 
      0.473056602003 
      0.557200557344 
      0.557120822742 
      0.582286097065 
      0.554421627610 
      0.557125149047 
      0.582337953673 
      0.554382185094 
      0.557067716397 
      0.582374856394 
      0.554362933709 
      0.555170656693 
      0.468473327985 
      0.340550363560 
      0.555091806709 
      0.468409336462 
      0.340576891082 
      0.555024430220 
      0.468386738309 
      0.340597024120 
      0.341438362746 
      0.177859974736 
     -0.000756773165 
      0.341482474470 
      0.177889632597 
     -0.000751605553 
      0.341487303973 
      0.177901148570 
     -0.000741334411 
      0.000106305961 
     -0.178620916989 
     -0.342393912362 
      0.000114480045 
     -0.178632747530 
     -0.342402670909 
      0.000117314357 
     -0.178639550588 
     -0.342402715865 
     -0.341459651259 
     -0.469540544708 
     -0.556364541177 
     -0.341464900687 
     -0.469531341378 
     -0.556371687254 
     -0.341463591037 
     -0.469528664875 
     -0.556374011169 
     -0.555662558152 
     -0.583508475455 
     -0.558116112812 
     -0.555674371366 
     -0.583506867889 
     -0.558104092704 
     -0.555677847568 
     -0.583506564235 
     -0.558099230269 
     -0.558211372247 
     -0.473645090372 
     -0.344892440696 
     -0.558205600432 
     -0.473659329858 
     -0.344880536934 
     -0.558202259035 
     -0.473665102132 
     -0.344879435161 
     -0.346064202443 
     -0.181257990991 
      0.000339849811 
     -0.346044198317 
     -0.181244454951 
      0.000279026598 
     -0.346037372062 
     -0.181235884800 
      0.000250115036 
     -0.001240042334 
      0.180474731918 
      0.345284807768 
     -0.001285081608 
      0.180478165838 
      0.345337019395 
     -0.001310450711 
      0.180480346021 
      0.345370615596 
      0.344135263646 
      0.472737265596 
      0.557288815368 
      0.344154868190 
      0.472716069088 
      0.557326506692 
      0.344161132959 
      0.472703970755 
      0.557342190917 
      0.557153396839 
      0.582503938125 
      0.554685451942 
      0.557217706097 
      0.582566101694 
      0.554614109045 
      0.557223718360 
      0.582606027379 
      0.554622114399 
      0.555446338077 
      0.468966040667 
      0.341276908065 
      0.555405160846 
      0.468957527646 
      0.341195116639 
      0.555381934158 
      0.468918633554 
      0.341197629194 
      0.342042723609 
      0.178687343190 
     -0.000506785227 
      0.341985975001 
      0.178594015832 
     -0.000308220498 
      0.341898812838 
      0.178625034406 
     -0.000210253598 
SCALARS  HV  double
LOOKUP_TABLE default
      0.000070702840 
     -0.000014431028 
     -0.000003334404 
     -0.000016953938 
      0.000011478927 
     -0.000054136275 
     -0.000336399021 
      0.000145033089 
     -0.000097135214 
     -0.000040896908 
     -0.000005831897 
      0.000029955009 
     -0.000010975621 
      0.000013435531 
      0.000035429426 
      0.000071922759 
      0.000024731431 
      0.000009103809 
      0.000009896678 
     -0.000009993869 
      0.000013877803 
      0.000042245431 
      0.000002150259 
     -0.000023922369 
      0.000038767611 
      0.000016723160 
     -0.000033641691 
      0.000011823941 
     -0.000005219672 
      0.000005888748 
     -0.000033055649 
      0.000009807680 
      0.000023235966 
     -0.000041682356 
      0.000007642748 
      0.000015829971 
      0.000009152470 
      0.000000547245 
     -0.000000672045 
      0.000025732174 
     -0.000014135885 
     -0.000013906391 
      0.000022243130 
     -0.000015119955 
     -0.000021087758 
      0.000000383850 
     -0.000000528249 
     -0.000000296335 
     -0.000012616542 
      0.000008308751 
      0.000001828604 
     -0.000021615122 
      0.000012095153 
      0.000004046633 
      0.000000396491 
      0.000000242977 
     -0.000000650933 
     -0.000001101306 
     -0.000003153397 
      0.000001674112 
     -0.000001503870 
     -0.000004988428 
      0.000003307625 
     -0.000000363999 
      0.000000184449 
     -0.000000825154 
      0.000002717845 
      0.000000386599 
     -0.000000550871 
      0.000004619529 
     -0.000000177787 
      0.000000862407 
     -0.000000587294 
      0.000000575498 
     -0.000001011982 
     -0.000000849406 
      0.000000207887 
     -0.000001928768 
      0.000000862908 
     -0.000000524981 
     -0.000005800024 
     -0.000001804823 
      0.000000143456 
      0.000003235067 
     -0.000002563771 
      0.000000270939 
      0.000009380347 
     -0.000004627212 
      0.000004346526 
      0.000012537840 
     -0.000000179440 
     -0.000001805214 