# vtk DataFile Version 2.0
NDG-FEM NonhydrostaticStandingWave2d Simulation
ASCII
DATASET UNSTRUCTURED_GRID

POINTS 405 double
0.00000000000000000000  0.00000000000000000000  0.00000000000000000000
1.00000000000000000000  0.00000000000000000000  0.00000000000000000000
2.00000000000000000000  0.00000000000000000000  0.00000000000000000000
0.00000000000000000000  1.00000000000000000000  0.00000000000000000000
1.00000000000000000000  1.00000000000000000000  0.00000000000000000000
2.00000000000000000000  1.00000000000000000000  0.00000000000000000000
0.00000000000000000000  2.00000000000000000000  0.00000000000000000000
1.00000000000000000000  2.00000000000000000000  0.00000000000000000000
2.00000000000000000000  2.00000000000000000000  0.00000000000000000000
2.00000000000000000000  0.00000000000000000000  0.00000000000000000000
3.00000000000000000000  0.00000000000000000000  0.00000000000000000000
4.00000000000000000000  0.00000000000000000000  0.00000000000000000000
2.00000000000000000000  1.00000000000000000000  0.00000000000000000000
3.00000000000000000000  1.00000000000000000000  0.00000000000000000000
4.00000000000000000000  1.00000000000000000000  0.00000000000000000000
2.00000000000000000000  2.00000000000000000000  0.00000000000000000000
3.00000000000000000000  2.00000000000000000000  0.00000000000000000000
4.00000000000000000000  2.00000000000000000000  0.00000000000000000000
4.00000000000000000000  0.00000000000000000000  0.00000000000000000000
5.00000000000000000000  0.00000000000000000000  0.00000000000000000000
6.00000000000000000000  0.00000000000000000000  0.00000000000000000000
4.00000000000000000000  1.00000000000000000000  0.00000000000000000000
5.00000000000000000000  1.00000000000000000000  0.00000000000000000000
6.00000000000000000000  1.00000000000000000000  0.00000000000000000000
4.00000000000000000000  2.00000000000000000000  0.00000000000000000000
5.00000000000000000000  2.00000000000000000000  0.00000000000000000000
6.00000000000000000000  2.00000000000000000000  0.00000000000000000000
6.00000000000000000000  0.00000000000000000000  0.00000000000000000000
7.00000000000000000000  0.00000000000000000000  0.00000000000000000000
8.00000000000000000000  0.00000000000000000000  0.00000000000000000000
6.00000000000000000000  1.00000000000000000000  0.00000000000000000000
7.00000000000000000000  1.00000000000000000000  0.00000000000000000000
8.00000000000000000000  1.00000000000000000000  0.00000000000000000000
6.00000000000000000000  2.00000000000000000000  0.00000000000000000000
7.00000000000000000000  2.00000000000000000000  0.00000000000000000000
8.00000000000000000000  2.00000000000000000000  0.00000000000000000000
8.00000000000000000000  0.00000000000000000000  0.00000000000000000000
9.00000000000000000000  0.00000000000000000000  0.00000000000000000000
10.00000000000000000000  0.00000000000000000000  0.00000000000000000000
8.00000000000000000000  1.00000000000000000000  0.00000000000000000000
9.00000000000000000000  1.00000000000000000000  0.00000000000000000000
10.00000000000000000000  1.00000000000000000000  0.00000000000000000000
8.00000000000000000000  2.00000000000000000000  0.00000000000000000000
9.00000000000000000000  2.00000000000000000000  0.00000000000000000000
10.00000000000000000000  2.00000000000000000000  0.00000000000000000000
10.00000000000000000000  0.00000000000000000000  0.00000000000000000000
11.00000000000000000000  0.00000000000000000000  0.00000000000000000000
12.00000000000000000000  0.00000000000000000000  0.00000000000000000000
10.00000000000000000000  1.00000000000000000000  0.00000000000000000000
11.00000000000000000000  1.00000000000000000000  0.00000000000000000000
12.00000000000000000000  1.00000000000000000000  0.00000000000000000000
10.00000000000000000000  2.00000000000000000000  0.00000000000000000000
11.00000000000000000000  2.00000000000000000000  0.00000000000000000000
12.00000000000000000000  2.00000000000000000000  0.00000000000000000000
12.00000000000000000000  0.00000000000000000000  0.00000000000000000000
13.00000000000000000000  0.00000000000000000000  0.00000000000000000000
14.00000000000000000000  0.00000000000000000000  0.00000000000000000000
12.00000000000000000000  1.00000000000000000000  0.00000000000000000000
13.00000000000000000000  1.00000000000000000000  0.00000000000000000000
14.00000000000000000000  1.00000000000000000000  0.00000000000000000000
12.00000000000000000000  2.00000000000000000000  0.00000000000000000000
13.00000000000000000000  2.00000000000000000000  0.00000000000000000000
14.00000000000000000000  2.00000000000000000000  0.00000000000000000000
14.00000000000000000000  0.00000000000000000000  0.00000000000000000000
15.00000000000000000000  0.00000000000000000000  0.00000000000000000000
16.00000000000000000000  0.00000000000000000000  0.00000000000000000000
14.00000000000000000000  1.00000000000000000000  0.00000000000000000000
15.00000000000000000000  1.00000000000000000000  0.00000000000000000000
16.00000000000000000000  1.00000000000000000000  0.00000000000000000000
14.00000000000000000000  2.00000000000000000000  0.00000000000000000000
15.00000000000000000000  2.00000000000000000000  0.00000000000000000000
16.00000000000000000000  2.00000000000000000000  0.00000000000000000000
16.00000000000000000000  0.00000000000000000000  0.00000000000000000000
17.00000000000000000000  0.00000000000000000000  0.00000000000000000000
18.00000000000000000000  0.00000000000000000000  0.00000000000000000000
16.00000000000000000000  1.00000000000000000000  0.00000000000000000000
17.00000000000000000000  1.00000000000000000000  0.00000000000000000000
18.00000000000000000000  1.00000000000000000000  0.00000000000000000000
16.00000000000000000000  2.00000000000000000000  0.00000000000000000000
17.00000000000000000000  2.00000000000000000000  0.00000000000000000000
18.00000000000000000000  2.00000000000000000000  0.00000000000000000000
18.00000000000000000000  0.00000000000000000000  0.00000000000000000000
19.00000000000000000000  0.00000000000000000000  0.00000000000000000000
20.00000000000000000000  0.00000000000000000000  0.00000000000000000000
18.00000000000000000000  1.00000000000000000000  0.00000000000000000000
19.00000000000000000000  1.00000000000000000000  0.00000000000000000000
20.00000000000000000000  1.00000000000000000000  0.00000000000000000000
18.00000000000000000000  2.00000000000000000000  0.00000000000000000000
19.00000000000000000000  2.00000000000000000000  0.00000000000000000000
20.00000000000000000000  2.00000000000000000000  0.00000000000000000000
20.00000000000000000000  0.00000000000000000000  0.00000000000000000000
21.00000000000000000000  0.00000000000000000000  0.00000000000000000000
22.00000000000000000000  0.00000000000000000000  0.00000000000000000000
20.00000000000000000000  1.00000000000000000000  0.00000000000000000000
21.00000000000000000000  1.00000000000000000000  0.00000000000000000000
22.00000000000000000000  1.00000000000000000000  0.00000000000000000000
20.00000000000000000000  2.00000000000000000000  0.00000000000000000000
21.00000000000000000000  2.00000000000000000000  0.00000000000000000000
22.00000000000000000000  2.00000000000000000000  0.00000000000000000000
22.00000000000000000000  0.00000000000000000000  0.00000000000000000000
23.00000000000000000000  0.00000000000000000000  0.00000000000000000000
24.00000000000000000000  0.00000000000000000000  0.00000000000000000000
22.00000000000000000000  1.00000000000000000000  0.00000000000000000000
23.00000000000000000000  1.00000000000000000000  0.00000000000000000000
24.00000000000000000000  1.00000000000000000000  0.00000000000000000000
22.00000000000000000000  2.00000000000000000000  0.00000000000000000000
23.00000000000000000000  2.00000000000000000000  0.00000000000000000000
24.00000000000000000000  2.00000000000000000000  0.00000000000000000000
24.00000000000000000000  0.00000000000000000000  0.00000000000000000000
25.00000000000000000000  0.00000000000000000000  0.00000000000000000000
26.00000000000000000000  0.00000000000000000000  0.00000000000000000000
24.00000000000000000000  1.00000000000000000000  0.00000000000000000000
25.00000000000000000000  1.00000000000000000000  0.00000000000000000000
26.00000000000000000000  1.00000000000000000000  0.00000000000000000000
24.00000000000000000000  2.00000000000000000000  0.00000000000000000000
25.00000000000000000000  2.00000000000000000000  0.00000000000000000000
26.00000000000000000000  2.00000000000000000000  0.00000000000000000000
26.00000000000000000000  0.00000000000000000000  0.00000000000000000000
27.00000000000000000000  0.00000000000000000000  0.00000000000000000000
28.00000000000000000000  0.00000000000000000000  0.00000000000000000000
26.00000000000000000000  1.00000000000000000000  0.00000000000000000000
27.00000000000000000000  1.00000000000000000000  0.00000000000000000000
28.00000000000000000000  1.00000000000000000000  0.00000000000000000000
26.00000000000000000000  2.00000000000000000000  0.00000000000000000000
27.00000000000000000000  2.00000000000000000000  0.00000000000000000000
28.00000000000000000000  2.00000000000000000000  0.00000000000000000000
28.00000000000000000000  0.00000000000000000000  0.00000000000000000000
29.00000000000000000000  0.00000000000000000000  0.00000000000000000000
30.00000000000000000000  0.00000000000000000000  0.00000000000000000000
28.00000000000000000000  1.00000000000000000000  0.00000000000000000000
29.00000000000000000000  1.00000000000000000000  0.00000000000000000000
30.00000000000000000000  1.00000000000000000000  0.00000000000000000000
28.00000000000000000000  2.00000000000000000000  0.00000000000000000000
29.00000000000000000000  2.00000000000000000000  0.00000000000000000000
30.00000000000000000000  2.00000000000000000000  0.00000000000000000000
0.00000000000000000000  2.00000000000000000000  0.00000000000000000000
1.00000000000000000000  2.00000000000000000000  0.00000000000000000000
[...]
POINT_DATA 405
SCALARS  H  double
LOOKUP_TABLE default
      7.654583987308 
      7.652820907891 
      7.647013249206 
      7.654644633602 
      7.652817659495 
      7.647053399883 
      7.654664724917 
      7.652816211371 
      7.647062782902 
      7.647068884163 
      7.638262254615 
      7.626433455934 
      7.647085837612 
      7.638254183950 
      7.626435987273 
      7.647088652787 
      7.638252257781 
      7.626434585642 
      7.626683346842 
      7.613275628962 
      7.599327320728 
      7.626683604558 
      7.613277012220 
      7.599328826709 
      7.626683949708 
      7.613279915019 
      7.599323057666 
      7.599652870904 
      7.586464352530 
      7.575884784027 
      7.599651660548 
      7.586461511144 
      7.575888578836 
      7.599643670846 
      7.586458135972 
      7.575894157834 
      7.576126803068 
      7.568840905277 
      7.566649234482 
      7.576131247141 
      7.568841386243 
      7.566647533835 
      7.576139946793 
      7.568842953560 
      7.566641593072 
      7.566647640339 
      7.568908830528 
      7.576251896469 
      7.566644950735 
      7.568908614586 
      7.576253934425 
      7.566637333014 
      7.568909413940 
      7.576257443605 
      7.576010247409 
      7.586612038444 
      7.599800887562 
      7.576012454942 
      7.586611388394 
      7.599800509105 
      7.576016124837 
      7.586609965112 
      7.599799598467 
      7.599475048393 
      7.613381379793 
      7.626721914622 
      7.599475020906 
      7.613381666382 
      7.626722003563 
      7.599474856741 
      7.613382475012 
      7.626722365469 
      7.626477818830 
      7.638258537544 
      7.647079834651 
      7.626477814420 
      7.638258373640 
      7.647079072218 
      7.626477815892 
      7.638257765687 
      7.647077012560 
      7.646959605107 
      7.652839850281 
      7.654569815634 
      7.646959040161 
      7.652840730136 
      7.654572295305 
      7.646957714062 
      7.652843568010 
      7.654575446396 
      7.654569871872 
      7.652913051267 
      7.647067641787 
      7.654571694124 
      7.652909275878 
      7.647066325073 
      7.654573210154 
      7.652902320001 
      7.647063024201 
      7.647185443020 
      7.638376094039 
      7.626596143065 
      7.647185955054 
      7.638381860535 
      7.626592619373 
      7.647185203263 
      7.638391494871 
      7.626592624127 
      7.626842577090 
      7.613484518366 
      7.599551694100 
      7.626839397385 
      7.613477921443 
      7.599547086146 
      7.626839116386 
      7.613467888471 
      7.599533821102 
      7.599871072823 
      7.586642314144 
      7.576023573017 
      7.599867661562 
      7.586640909189 
      7.576026880609 
      7.599855138214 
      7.586635166711 
      7.576023913527 
      7.576196771514 
      7.568927173056 
      7.566579186416 
      7.576201830884 
      7.568933354854 
      7.566577470671 
      7.576189250137 
      7.568956638426 
      7.566521851360 
      7.654702694950 
      7.652805791202 
      7.647067354775 
      7.654607974808 
      7.652819610481 
      7.647037428263 
      7.654653476839 
      7.652831132335 
      7.647068835767 
      7.647090645355 
      7.638253116205 
      7.626433581593 
      7.647094050755 
      7.638259352165 
      7.626434598784 
      7.647087570983 
      7.638256434254 
      7.626434314992 
      7.626684678767 
      7.613280005472 
      7.599323942871 
      7.626683682776 
      7.613279245424 
      7.599321896376 
      7.626679244180 
      7.613277268726 
      7.599328546061 
      7.599645185305 
      7.586457602106 
      7.575893278473 
      7.599641803097 
      7.586455025052 
      7.575895165611 
      7.599650167625 
      7.586453978732 
      7.575888636003 
      7.576139114035 
      7.568843306172 
      7.566642068107 
      7.576142429217 
      7.568842166133 
      7.566639662627 
      7.576134655454 
      7.568839434097 
      7.566642775303 
      7.566637914211 
      7.568909167845 
      7.576257174698 
      7.566634762705 
      7.568911027882 
      7.576259587588 
      7.566638121058 
      7.568913209129 
      7.576259866903 
      7.576015954331 
      7.586610148267 
      7.599799525228 
      7.576018447983 
      7.586608455134 
      7.599798461647 
      7.576018678981 
      7.586607001979 
      7.599797645850 
      7.599474727269 
      7.613382441981 
      7.626722438631 
      7.599474788762 
      7.613383693176 
      7.626722534119 
      7.599475162845 
      7.613384993659 
      7.626722951413 
      7.626477876366 
      7.638257716164 
      7.647077060741 
      7.626477211145 
      7.638256674222 
      7.647076515688 
      7.626476531062 
      7.638255005864 
      7.647077401977 
      7.646957800181 
      7.652843621570 
      7.654574779793 
      7.646957642534 
      7.652846180039 
      7.654576530444 
      7.646958985227 
      7.652848370305 
      7.654575259706 
      7.654572572844 
      7.652902846078 
      7.647064180662 
      7.654573300508 
      7.652899170783 
      7.647060469820 
      7.654572844115 
      7.652898371993 
      7.647055889276 
      7.647185642815 
      7.638390280649 
      7.626592538775 
      7.647181658690 
      7.638387549627 
      7.626603264429 
      7.647175862203 
      7.638380427175 
      7.626606637492 
      7.626838975451 
      7.613467490030 
      7.599536066460 
      7.626850194590 
      7.613473126468 
      7.599516917764 
      7.626853744670 
      7.613486262497 
      7.599519439044 
      7.599857775602 
      7.586636714739 
      7.576030998339 
      7.599842066443 
      7.586628141282 
      7.576023970576 
      7.599844123567 
      7.586631386659 
      7.576024179904 
      7.576196719437 
      7.568950994245 
      7.566547440301 
      7.576202058225 
      7.568962116196 
      7.566586016291 
      7.576215360611 
      7.568957765139 
      7.566612507601 
      7.654616045725 
      7.652833849480 
      7.647069497934 
      7.654597526678 
      7.652833907996 
      7.647040088111 
      7.654420512048 
      7.652871392434 
      7.646991576608 
      7.647094969637 
      7.638255785797 
      7.626434993224 
      7.647095617153 
      7.638253241404 
      7.626431648832 
      7.647045641150 
      7.638257897920 
      7.626426174065 
      7.626680695888 
      7.613275935902 
      7.599328275503 
      7.626674838670 
      7.613276913364 
      7.599336298751 
      7.626661802257 
      7.613279643604 
      7.599340587563 
      7.599650192769 
      7.586454783058 
      7.575889702043 
      7.599661648285 
      7.586455220732 
      7.575877947346 
      7.599664674030 
      7.586454886107 
      7.575874130478 
      7.576135884332 
      7.568838991833 
      7.566642241847 
      7.576121356943 
      7.568836412938 
      7.566647420658 
      7.576114616524 
      7.568835240646 
      7.566650418994 
      7.566637704371 
      7.568913307796 
      7.576259920212 
      7.566643131314 
      7.568915363019 
      7.576259063741 
      7.566645719805 
      7.568915863586 
      7.576259107189 
      7.576018795162 
      7.586606984590 
      7.599797592773 
      7.576017588487 
      7.586605973900 
      7.599797154412 
      7.576017480043 
      7.586605462296 
      7.599797079746 
      7.599475122095 
      7.613385028019 
      7.626722769072 
      7.599475483096 
      7.613385997949 
      7.626724054689 
      7.599475715915 
      7.613386351482 
      7.626724772249 
      7.626476367051 
      7.638255144639 
      7.647077510760 
      7.626476489252 
      7.638252847791 
      7.647078582797 
      7.626476580826 
      7.638251745436 
      7.647079446010 
      7.646958929821 
      7.652848161934 
      7.654575677668 
      7.646961006474 
      7.652851206794 
      7.654569768822 
      7.646962211620 
      7.652852404542 
      7.654567272133 
      7.654573228836 
      7.652898415050 
      7.647055139467 
      7.654568565515 
      7.652898760657 
      7.647058830676 
      7.654566595027 
      7.652898909844 
      7.647062864066 
      7.647175364036 
      7.638381162785 
      7.626607730577 
      7.647175464370 
      7.638371939214 
      7.626605164271 
      7.647177921868 
      7.638366778830 
      7.626604487744 
      7.626854019300 
      7.613486215081 
      7.599520187755 
      7.626853376512 
      7.613494383636 
      7.599536766196 
      7.626853823071 
      7.613497882125 
      7.599538566823 
      7.599844803721 
      7.586628695592 
      7.576023921404 
      7.599861768641 
      7.586635804605 
      7.576030927669 
      7.599866893130 
      7.586640406984 
      7.576035487440 
      7.576214157234 
      7.568953539337 
      7.566622769138 
      7.576187039829 
      7.568963080238 
      7.566516020014 
      7.576225415548 
      7.568946209233 
      7.566599307497 
SCALARS  HU  double
LOOKUP_TABLE default
     -0.000900846655 
      0.234334880215 
      0.446855038665 
     -0.001074022262 
      0.234458221659 
      0.446954224331 
     -0.001167030722 
      0.234572750444 
      0.446750434699 
      0.445534031633 
      0.617051652964 
      0.732089044223 
      0.445610457927 
      0.616968403208 
      0.732119174887 
      0.445648273706 
      0.616992115429 
      0.732109005857 
      0.731419026226 
      0.773851078703 
      0.743457900200 
      0.731424499392 
      0.773864665791 
      0.743458645106 
      0.731440315047 
      0.773884609691 
      0.743425959183 
      0.744313398903 
      0.635767153954 
      0.464961148694 
      0.744286685527 
      0.635751747526 
      0.464986584177 
      0.744230850770 
      0.635723636915 
      0.465023868937 
      0.466856630165 
      0.244677500114 
     -0.001917288344 
      0.466889257601 
      0.244680799177 
     -0.001931805181 
      0.466957545298 
      0.244687392768 
     -0.001973222775 
      0.000315589019 
     -0.246182974234 
     -0.468119129215 
      0.000291472377 
     -0.246181551045 
     -0.468106560138 
      0.000233203560 
     -0.246171933709 
     -0.468080947214 
     -0.466190194587 
     -0.636763034116 
     -0.745424704741 
     -0.466174692962 
     -0.636768450218 
     -0.745427791922 
     -0.466146767392 
     -0.636781001242 
     -0.745432336094 
     -0.744604448345 
     -0.774836088353 
     -0.731769489457 
     -0.744603371897 
     -0.774832966531 
     -0.731774367901 
     -0.744601586147 
     -0.774826447322 
     -0.731784805637 
     -0.732479861603 
     -0.616968619554 
     -0.445536973253 
     -0.732485086263 
     -0.616967699799 
     -0.445528859859 
     -0.732498317638 
     -0.616963486908 
     -0.445508054783 
     -0.447488267004 
     -0.233869006990 
      0.000455648411 
     -0.447481727862 
     -0.233877436585 
      0.000439141943 
     -0.447470110976 
     -0.233901177570 
      0.000406888844 
     -0.001967786988 
      0.232423911331 
      0.446286628250 
     -0.001974319430 
      0.232449306661 
      0.446310214596 
     -0.001988779337 
      0.232501378774 
      0.446344306379 
      0.444358313754 
      0.616110883178 
      0.731710297436 
      0.444356970658 
      0.616067044995 
      0.731722031937 
      0.444363798924 
      0.616006715786 
      0.731700168813 
      0.731011035300 
      0.773997715776 
      0.743887944438 
      0.731016025752 
      0.774031692154 
      0.743909491053 
      0.731003516957 
      0.774075475697 
      0.743999694845 
      0.744754634279 
      0.636478628254 
      0.466078667144 
      0.744757132165 
      0.636517671090 
      0.466042750897 
      0.744849960614 
      0.636550740432 
      0.466101229672 
      0.467393090322 
      0.246528387037 
     -0.000957291726 
      0.467322972698 
      0.246604951507 
     -0.000990578247 
      0.467330786439 
      0.246491287163 
     -0.001072490063 
     -0.001084936439 
      0.234551311104 
      0.446747386430 
     -0.001039004420 
      0.234352478077 
      0.447061603006 
     -0.001453295283 
      0.234473048055 
      0.446848824656 
      0.445670674654 
      0.616963087655 
      0.732105513472 
      0.445676277042 
      0.616992437456 
      0.732095997409 
      0.445604555137 
      0.616958275696 
      0.732094325083 
      0.731440491213 
      0.773887779488 
      0.743427649900 
      0.731413191504 
      0.773880304447 
      0.743418945513 
      0.731373404367 
      0.773863089526 
      0.743469730883 
      0.744240510476 
      0.635721692892 
      0.465017865088 
      0.744217845241 
      0.635703159688 
      0.465029211303 
      0.744284520647 
      0.635694035480 
      0.464983249984 
      0.466952066325 
      0.244690410354 
     -0.001970080303 
      0.466977095002 
      0.244681458927 
     -0.001989251824 
      0.466918489075 
      0.244664772977 
     -0.001969538941 
      0.000237488059 
     -0.246173964733 
     -0.468082588666 
      0.000212646563 
     -0.246156014256 
     -0.468066632180 
      0.000237152216 
     -0.246136511274 
     -0.468066398618 
     -0.466147677616 
     -0.636779811065 
     -0.745432381403 
     -0.466132406005 
     -0.636794519107 
     -0.745428300859 
     -0.466135697773 
     -0.636807883119 
     -0.745415194020 
     -0.744602231253 
     -0.774826726527 
     -0.731784982175 
     -0.744592591473 
     -0.774824196077 
     -0.731798305631 
     -0.744574974466 
     -0.774826299279 
     -0.731816423960 
     -0.732498235545 
     -0.616963176857 
     -0.445508399336 
     -0.732510299825 
     -0.616953055454 
     -0.445499631455 
     -0.732521933607 
     -0.616935587956 
     -0.445503872997 
     -0.447470761751 
     -0.233901602319 
      0.000413437327 
     -0.447467158814 
     -0.233925719090 
      0.000399544351 
     -0.447477431517 
     -0.233947975278 
      0.000414703128 
     -0.001982798152 
      0.232497867067 
      0.446334428363 
     -0.001986110444 
      0.232525944293 
      0.446359632797 
     -0.001978025188 
      0.232529530680 
      0.446386554071 
      0.444360497549 
      0.616012244124 
      0.731701746701 
      0.444390314579 
      0.616033778003 
      0.731635563603 
      0.444426666341 
      0.616088993040 
      0.731617433998 
      0.731005606982 
      0.774079790966 
      0.743978372181 
      0.730934311762 
      0.774035294669 
      0.744120820117 
      0.730908859863 
      0.773961093036 
      0.744119992503 
      0.744820412668 
      0.636543644535 
      0.466018410681 
      0.744928974137 
      0.636607110158 
      0.466128052988 
      0.744932960177 
      0.636570060888 
      0.466067343132 
      0.467195697981 
      0.246571083624 
     -0.000995204146 
      0.467532620322 
      0.246393216014 
     -0.000894019503 
      0.467583173966 
      0.246260557590 
     -0.001038424488 
     -0.001372945075 
      0.234453048475 
      0.446984378373 
     -0.001362989386 
      0.234334991535 
      0.447083606853 
     -0.001211669336 
      0.234453098063 
      0.447134162477 
      0.445665653128 
      0.616960612250 
      0.732100238535 
      0.445615994868 
      0.616933516894 
      0.732056807624 
      0.445349034999 
      0.616982158799 
      0.732054872559 
      0.731384340001 
      0.773858456301 
      0.743461492815 
      0.731330965638 
      0.773855441706 
      0.743524517572 
      0.731229690648 
      0.773866945038 
      0.743549908345 
      0.744279603650 
      0.635699395059 
      0.464990021189 
      0.744376938280 
      0.635700497252 
      0.464908892785 
      0.744383485399 
      0.635701817560 
      0.464882010258 
      0.466928044416 
      0.244661004917 
     -0.001972410109 
      0.466818732137 
      0.244647350549 
     -0.001936003790 
      0.466768236323 
      0.244640807623 
     -0.001914064509 
      0.000235659588 
     -0.246135747895 
     -0.468065782672 
      0.000276633309 
     -0.246119555330 
     -0.468072371902 
      0.000295169744 
     -0.246114704864 
     -0.468072673915 
     -0.466134559725 
     -0.636807824296 
     -0.745416127485 
     -0.466147682730 
     -0.636818668525 
     -0.745400284264 
     -0.466151230439 
     -0.636823969202 
     -0.745393367048 
     -0.744576120443 
     -0.774826105267 
     -0.731814634063 
     -0.744556443211 
     -0.774829445719 
     -0.731837569790 
     -0.744546641502 
     -0.774831144454 
     -0.731848531123 
     -0.732520988529 
     -0.616936900012 
     -0.445504783522 
     -0.732534025314 
     -0.616915145320 
     -0.445509931834 
     -0.732539146676 
     -0.616905384570 
     -0.445513825950 
     -0.447477138310 
     -0.233945898704 
      0.000411824122 
     -0.447494577041 
     -0.233972596626 
      0.000456972099 
     -0.447503594447 
     -0.233983736079 
      0.000478540264 
     -0.001980599441 
      0.232529317927 
      0.446393314129 
     -0.001947787155 
      0.232526385780 
      0.446358026340 
     -0.001932871459 
      0.232525802590 
      0.446330483415 
      0.444430724002 
      0.616083997635 
      0.731608873586 
      0.444432812680 
      0.616152049472 
      0.731627619488 
      0.444420664537 
      0.616186126144 
      0.731646854173 
      0.730903463347 
      0.773967515396 
      0.744111534155 
      0.730914318291 
      0.773913559573 
      0.744029858968 
      0.730899549307 
      0.773902673681 
      0.744018200361 
      0.744927977755 
      0.636605890167 
      0.466103328292 
      0.744845348961 
      0.636590165727 
      0.466055811696 
      0.744783930486 
      0.636570663185 
      0.466036748893 
      0.467595905636 
      0.246307335582 
     -0.001006138131 
      0.467235901477 
      0.246519406377 
     -0.001175493031 
      0.467361117007 
      0.246426210953 
     -0.000791686024 
SCALARS  HV  double
LOOKUP_TABLE default
      0.000037370911 
     -0.000044199504 
     -0.000040653730 
     -0.000335502073 
      0.000029398908 
     -0.000131124657 
     -0.000054214299 
      0.000098813619 
     -0.000094896306 
      0.000016488002 
      0.000011636188 
      0.000004734435 
      0.000039285352 
      0.000013476913 
     -0.000003353558 
     -0.000033607355 
      0.000038049587 
      0.000017313728 
      0.000010070906 
     -0.000005435654 
      0.000006704234 
     -0.000010156835 
      0.000018819184 
      0.000019840068 
      0.000010682808 
      0.000035469071 
      0.000028814106 
      0.000014778624 
      0.000000826063 
     -0.000003515097 
      0.000024730781 
     -0.000017601942 
     -0.000011192995 
      0.000035831176 
     -0.000012764103 
     -0.000020755602 
     -0.000001786204 
     -0.000002287696 
      0.000001982455 
     -0.000010119991 
      0.000016290516 
      0.000001919035 
     -0.000021232988 
      0.000014619733 
      0.000000230884 
      0.000004051999 
      0.000000115918 
     -0.000001782390 
     -0.000002346814 
     -0.000013243805 
      0.000002902082 
     -0.000004948063 
     -0.000016234563 
      0.000004105830 
     -0.000001043699 
      0.000000495595 
     -0.000000709074 
      0.000007207959 
      0.000004692960 
     -0.000004466252 
      0.000009761323 
      0.000005884187 
     -0.000005787574 
     -0.000000608250 
      0.000000078646 
     -0.000000370933 
     -0.000005937791 
      0.000000716548 
      0.000001259277 
     -0.000007973393 
      0.000001426699 
     -0.000000184433 
     -0.000000271934 
      0.000000048846 
     -0.000000050781 
      0.000000315346 
     -0.000002990095 
      0.000004961106 
     -0.000001216058 
     -0.000003871812 
      0.000012173158 
     -0.000000797470 
      0.000000444150 
     -0.000000738262 
      0.000005748577 
      0.000001548392 
     -0.000023908887 
      0.000011927942 
     -0.000001905676 
     -0.000038569490 
     -0.000002664009 
      0.000002477301 