# vtk DataFile Version 2.0
NDG-FEM NonhydrostaticStandingWave2d Simulation
ASCII
DATASET UNSTRUCTURED_GRID

POINTS 1800 double
0.00000000000000000000  0.00000000000000000000  0.00000000000000000000
1.00000000000000000000  0.00000000000000000000  0.00000000000000000000
2.00000000000000000000  0.00000000000000000000  0.00000000000000000000
0.00000000000000000000  1.00000000000000000000  0.00000000000000000000
1.00000000000000000000  1.00000000000000000000  0.00000000000000000000
0.00000000000000000000  2.00000000000000000000  0.00000000000000000000
2.00000000000000000000  0.00000000000000000000  0.00000000000000000000
3.00000000000000000000  0.00000000000000000000  0.00000000000000000000
4.00000000000000000000  0.00000000000000000000  0.00000000000000000000
2.00000000000000000000  1.00000000000000000000  0.00000000000000000000
3.00000000000000000000  1.00000000000000000000  0.00000000000000000000
2.00000000000000000000  2.00000000000000000000  0.00000000000000000000
4.00000000000000000000  0.00000000000000000000  0.00000000000000000000
5.00000000000000000000  0.00000000000000000000  0.00000000000000000000
6.00000000000000000000  0.00000000000000000000  0.00000000000000000000
4.00000000000000000000  1.00000000000000000000  0.00000000000000000000
5.00000000000000000000  1.00000000000000000000  0.00000000000000000000
4.00000000000000000000  2.00000000000000000000  0.00000000000000000000
6.00000000000000000000  0.00000000000000000000  0.00000000000000000000
7.00000000000000000000  0.00000000000000000000  0.00000000000000000000
8.00000000000000000000  0.00000000000000000000  0.00000000000000000000
6.00000000000000000000  1.00000000000000000000  0.00000000000000000000
7.00000000000000000000  1.00000000000000000000  0.00000000000000000000
6.00000000000000000000  2.00000000000000000000  0.00000000000000000000
8.00000000000000000000  0.00000000000000000000  0.00000000000000000000
9.00000000000000000000  0.00000000000000000000  0.00000000000000000000
10.00000000000000000000  0.00000000000000000000  0.00000000000000000000
8.00000000000000000000  1.00000000000000000000  0.00000000000000000000
9.00000000000000000000  1.00000000000000000000  0.00000000000000000000
8.00000000000000000000  2.00000000000000000000  0.00000000000000000000
10.00000000000000000000  0.00000000000000000000  0.00000000000000000000
11.00000000000000000000  0.00000000000000000000  0.00000000000000000000
12.00000000000000000000  0.00000000000000000000  0.00000000000000000000
10.00000000000000000000  1.00000000000000000000  0.00000000000000000000
11.00000000000000000000  1.00000000000000000000  0.00000000000000000000
10.00000000000000000000  2.00000000000000000000  0.00000000000000000000
12.00000000000000000000  0.00000000000000000000  0.00000000000000000000
13.00000000000000000000  0.00000000000000000000  0.00000000000000000000
14.00000000000000000000  0.00000000000000000000  0.00000000000000000000
12.00000000000000000000  1.00000000000000000000  0.00000000000000000000
13.00000000000000000000  1.00000000000000000000  0.00000000000000000000
12.00000000000000000000  2.00000000000000000000  0.00000000000000000000
14.00000000000000000000  0.00000000000000000000  0.00000000000000000000
15.00000000000000000000  0.00000000000000000000  0.00000000000000000000
16.00000000000000000000  0.00000000000000000000  0.00000000000000000000
14.00000000000000000000  1.00000000000000000000  0.00000000000000000000
15.00000000000000000000  1.00000000000000000000  0.00000000000000000000
14.00000000000000000000  2.00000000000000000000  0.00000000000000000000
16.00000000000000000000  0.00000000000000000000  0.00000000000000000000
17.00000000000000000000  0.00000000000000000000  0.00000000000000000000
18.00000000000000000000  0.00000000000000000000  0.00000000000000000000
16.00000000000000000000  1.00000000000000000000  0.00000000000000000000
17.00000000000000000000  1.00000000000000000000  0.00000000000000000000
16.00000000000000000000  2.00000000000000000000  0.00000000000000000000
18.00000000000000000000  0.00000000000000000000  0.00000000000000000000
19.00000000000000000000  0.00000000000000000000  0.00000000000000000000
20.00000000000000000000  0.00000000000000000000  0.00000000000000000000
18.00000000000000000000  1.00000000000000000000  0.00000000000000000000
19.00000000000000000000  1.00000000000000000000  0.00000000000000000000
18.00000000000000000000  2.00000000000000000000  0.00000000000000000000
20.00000000000000000000  0.00000000000000000000  0.00000000000000000000
21.00000000000000000000  0.00000000000000000000  0.00000000000000000000
22.00000000000000000000  0.00000000000000000000  0.00000000000000000000
20.00000000000000000000  1.00000000000000000000  0.00000000000000000000
21.00000000000000000000  1.00000000000000000000  0.00000000000000000000
20.00000000000000000000  2.00000000000000000000  0.00000000000000000000
22.00000000000000000000  0.00000000000000000000  0.00000000000000000000
23.00000000000000000000  0.00000000000000000000  0.00000000000000000000
24.00000000000000000000  0.00000000000000000000  0.00000000000000000000
22.00000000000000000000  1.00000000000000000000  0.00000000000000000000
23.00000000000000000000  1.00000000000000000000  0.00000000000000000000
22.00000000000000000000  2.00000000000000000000  0.00000000000000000000
24.00000000000000000000  0.00000000000000000000  0.00000000000000000000
25.00000000000000000000  0.00000000000000000000  0.00000000000000000000
26.00000000000000000000  0.00000000000000000000  0.00000000000000000000
24.00000000000000000000  1.00000000000000000000  0.00000000000000000000
25.00000000000000000000  1.00000000000000000000  0.00000000000000000000
24.00000000000000000000  2.00000000000000000000  0.00000000000000000000
26.00000000000000000000  0.00000000000000000000  0.00000000000000000000
27.00000000000000000000  0.00000000000000000000  0.00000000000000000000
28.00000000000000000000  0.00000000000000000000  0.00000000000000000000
26.00000000000000000000  1.00000000000000000000  0.00000000000000000000
27.00000000000000000000  1.00000000000000000000  0.00000000000000000000
26.00000000000000000000  2.00000000000000000000  0.00000000000000000000
28.00000000000000000000  0.00000000000000000000  0.00000000000000000000
29.00000000000000000000  0.00000000000000000000  0.00000000000000000000
30.00000000000000000000  0.00000000000000000000  0.00000000000000000000
28.00000000000000000000  1.00000000000000000000  0.00000000000000000000
29.00000000000000000000  1.00000000000000000000  0.00000000000000000000
28.00000000000000000000  2.00000000000000000000  0.00000000000000000000
30.00000000000000000000  0.00000000000000000000  0.00000000000000000000
31.00000000000000000000  0.00000000000000000000  0.00000000000000000000
32.00000000000000000000  0.00000000000000000000  0.00000000000000000000
30.00000000000000000000  1.00000000000000000000  0.00000000000000000000
31.00000000000000000000  1.00000000000000000000  0.00000000000000000000
30.00000000000000000000  2.00000000000000000000  0.00000000000000000000
32.00000000000000000000  0.00000000000000000000  0.00000000000000000000
33.00000000000000000000  0.00000000000000000000  0.00000000000000000000
34.00000000000000000000  0.00000000000000000000  0.00000000000000000000
32.00000000000000000000  1.00000000000000000000  0.00000000000000000000
33.00000000000000000000  1.00000000000000000000  0.00000000000000000000
32.00000000000000000000  2.00000000000000000000  0.00000000000000000000
34.00000000000000000000  0.00000000000000000000  0.00000000000000000000
35.00000000000000000000  0.00000000000000000000  0.00000000000000000000
36.00000000000000000000  0.00000000000000000000  0.00000000000000000000
34.00000000000000000000  1.00000000000000000000  0.00000000000000000000
35.00000000000000000000  1.00000000000000000000  0.00000000000000000000
34.00000000000000000000  2.00000000000000000000  0.00000000000000000000
36.00000000000000000000  0.00000000000000000000  0.00000000000000000000
37.00000000000000000000  0.00000000000000000000  0.00000000000000000000
38.00000000000000000000  0.00000000000000000000  0.00000000000000000000
36.00000000000000000000  1.00000000000000000000  0.00000000000000000000
37.00000000000000000000  1.00000000000000000000  0.00000000000000000000
36.00000000000000000000  2.00000000000000000000  0.00000000000000000000
38.00000000000000000000  0.00000000000000000000  0.00000000000000000000
39.00000000000000000000  0.00000000000000000000  0.00000000000000000000
40.00000000000000000000  0.00000000000000000000  0.00000000000000000000
38.00000000000000000000  1.00000000000000000000  0.00000000000000000000
39.00000000000000000000  1.00000000000000000000  0.00000000000000000000
38.00000000000000000000  2.00000000000000000000  0.00000000000000000000
40.00000000000000000000  0.00000000000000000000  0.00000000000000000000
41.00000000000000000000  0.00000000000000000000  0.00000000000000000000
42.00000000000000000000  0.00000000000000000000  0.00000000000000000000
40.00000000000000000000  1.00000000000000000000  0.00000000000000000000
41.00000000000000000000  1.00000000000000000000  0.00000000000000000000
40.00000000000000000000  2.00000000000000000000  0.00000000000000000000
42.00000000000000000000  0.00000000000000000000  0.00000000000000000000
43.00000000000000000000  0.00000000000000000000  0.00000000000000000000
44.00000000000000000000  0.00000000000000000000  0.00000000000000000000
42.00000000000000000000  1.00000000000000000000  0.00000000000000000000
43.00000000000000000000  1.00000000000000000000  0.00000000000000000000
42.00000000000000000000  2.00000000000000000000  0.00000000000000000000
44.00000000000000000000  0.00000000000000000000  0.00000000000000000000
45.00000000000000000000  0.00000000000000000000  0.00000000000000000000
46.00000000000000000000  0.00000000000000000000  0.00000000000000000000
44.00000000000000000000  1.00000000000000000000  0.00000000000000000000
45.00000000000000000000  1.00000000000000000000  0.00000000000000000000
[...]
POINT_DATA 1800
SCALARS  H  double
LOOKUP_TABLE default
      7.613680329300 
      7.613431796170 
      7.613358118002 
      7.613713083268 
      7.613459323277 
      7.613688868663 
      7.613108831569 
      7.612589039113 
      7.612253191213 
      7.613180157975 
      7.612608903588 
      7.613158362982 
      7.612056168744 
      7.611648149221 
      7.611343548755 
      7.612092102745 
      7.611647219864 
      7.612075885525 
      7.611283439962 
      7.611187594785 
      7.610963768931 
      7.611273224274 
      7.611165531982 
      7.611267580450 
      7.611050343394 
      7.611130779840 
      7.610873398190 
      7.611000714929 
      7.611096371385 
      7.611008044576 
      7.611057786642 
      7.611135740162 
      7.610876668033 
      7.610989559339 
      7.611101456549 
      7.611007583969 
      7.611090524993 
      7.611201524651 
      7.611183510006 
      7.611027452943 
      7.611179928959 
      7.611049858722 
      7.611363193384 
      7.611664330674 
      7.612066452350 
      7.611326214278 
      7.611664124033 
      7.611345407660 
      7.612153909469 
      7.612600513288 
      7.613231279735 
      7.612156936599 
      7.612622990052 
      7.612165697806 
      7.613180491163 
      7.613429759690 
      7.613834209826 
      7.613225224869 
      7.613466686574 
      7.613219199656 
      7.613645701478 
      7.613422966583 
      7.613363362363 
      7.613716648628 
      7.613459078818 
      7.613697381977 
      7.613112475135 
      7.612583729912 
      7.612255627619 
      7.613180105864 
      7.612604392905 
      7.613155599226 
      7.612058862625 
      7.611645555339 
      7.611344562839 
      7.612094099046 
      7.611643694461 
      7.612074852719 
      7.611285164984 
      7.611187885938 
      7.610963186631 
      7.611274715804 
      7.611165388437 
      7.611268078268 
      7.611050115189 
      7.611130874971 
      7.610873430194 
      7.611000732178 
      7.611096345219 
      7.611008183894 
      7.611057778011 
      7.611135724553 
      7.610876701427 
      7.610989592072 
      7.611101443288 
      7.611007673692 
      7.611090544445 
      7.611201521270 
      7.611183511841 
      7.611027465159 
      7.611179926759 
      7.611049870180 
      7.611363197044 
      7.611664330604 
      7.612066451895 
      7.611326216060 
      7.611664123772 
      7.611345407995 
      7.612153909794 
      7.612600513319 
      7.613231279644 
      7.612156936763 
      7.612622990022 
      7.612165697751 
      7.613180491180 
      7.613429759695 
      7.613834209817 
      7.613225224881 
      7.613466686570 
      7.613219199647 
      7.613645701478 
      7.613422966583 
      7.613363362362 
      7.613716648629 
      7.613459078818 
      7.613697381976 
      7.613112475135 
      7.612583729912 
      7.612255627619 
      7.613180105864 
      7.612604392905 
      7.613155599226 
      7.612058862625 
      7.611645555339 
      7.611344562839 
      7.612094099046 
      7.611643694461 
      7.612074852719 
      7.611285164984 
      7.611187885938 
      7.610963186631 
      7.611274715804 
      7.611165388437 
      7.611268078268 
      7.611050115189 
      7.611130874971 
      7.610873430194 
      7.611000732178 
      7.611096345219 
      7.611008183894 
      7.611057778011 
      7.611135724553 
      7.610876701427 
      7.610989592072 
      7.611101443288 
      7.611007673692 
      7.611090544445 
      7.611201521270 
      7.611183511841 
      7.611027465159 
      7.611179926759 
      7.611049870180 
      7.611363197044 
      7.611664330604 
      7.612066451895 
      7.611326216060 
      7.611664123772 
      7.611345407995 
      7.612153909794 
      7.612600513319 
      7.613231279644 
      7.612156936763 
      7.612622990022 
      7.612165697751 
      7.613180491180 
      7.613429759695 
      7.613834209817 
      7.613225224881 
      7.613466686570 
      7.613219199647 
      7.613645701478 
      7.613422966583 
      7.613363362362 
      7.613716648629 
      7.613459078818 
      7.613697381976 
      7.613112475135 
      7.612583729912 
      7.612255627619 
      7.613180105864 
      7.612604392905 
      7.613155599226 
      7.612058862625 
      7.611645555339 
      7.611344562839 
      7.612094099046 
      7.611643694461 
      7.612074852719 
      7.611285164984 
      7.611187885938 
      7.610963186631 
      7.611274715804 
      7.611165388437 
      7.611268078268 
      7.611050115189 
      7.611130874971 
      7.610873430194 
      7.611000732178 
      7.611096345219 
      7.611008183894 
      7.611057778011 
      7.611135724553 
      7.610876701427 
      7.610989592072 
      7.611101443288 
      7.611007673692 
      7.611090544445 
      7.611201521270 
      7.611183511841 
      7.611027465159 
      7.611179926759 
      7.611049870180 
      7.611363197044 
      7.611664330604 
      7.612066451895 
      7.611326216060 
      7.611664123772 
      7.611345407995 
      7.612153909794 
      7.612600513319 
      7.613231279644 
      7.612156936763 
      7.612622990022 
      7.612165697751 
      7.613180491180 
      7.613429759695 
      7.613834209817 
      7.613225224881 
      7.613466686570 
      7.613219199647 
      7.613645701478 
      7.613422966583 
      7.613363362364 
      7.613716648629 
      7.613459078818 
      7.613697381976 
      7.613112475134 
      7.612583729912 
      7.612255627657 
      7.613180105866 
      7.612604392905 
      7.613155599220 
      7.612058862623 
      7.611645555335 
      7.611344563310 
      7.612094099030 
      7.611643694515 
      7.612074852657 
      7.611285165000 
      7.611187885827 
      7.610963191017 
      7.611274715425 
      7.611165389417 
      7.611268077703 
      7.611050115777 
      7.611130872847 
      7.610873461910 
      7.611000727616 
      7.611096355346 
      7.611008176601 
      7.611057784093 
      7.611135704530 
      7.610876929168 
      7.610989553110 
      7.611101507863 
      7.611007587636 
      7.611090596307 
      7.611201370818 
      7.611185493428 
      7.611027286764 
      7.611179974815 
      7.611049443088 
      7.611364331809 
      7.611661894135 
      7.612067612593 
      7.611326750685 
      7.611661578021 
      7.611346084447 
      7.612156810050 
      7.612598575005 
      7.613227472349 
      7.612158319210 
      7.612618929563 
      7.612166106366 
      7.613181067484 
      7.613422646292 
      7.613792869216 
      7.613227983552 
      7.613470422270 
      7.613216688871 
      7.613223831197 
      7.613246390773 
      7.613245107398 
      7.613453426643 
      7.613423954237 
      7.613766450008 
      7.612167487943 
      7.612172414977 
      7.612182937551 
      7.612615832944 
      7.612597683869 
      7.613187240920 
      7.611337005479 
      7.611328767855 
      7.611348113193 
      7.611658709839 
      7.611667027143 
      7.612053543452 
      7.611033691346 
      7.611016081180 
      7.611040318526 
      7.611175692385 
      7.611204545263 
      7.611206801490 
      7.610986902289 
      7.610967576009 
      7.610989817964 
      7.611102611241 
      7.611138186478 
      7.610929680436 
      7.610991578249 
      7.610976044664 
      7.610987609635 
      7.611102717069 
      7.611131717118 
      7.610936017239 
      7.611263679223 
      7.611256392600 
      7.611251353326 
      7.611175220648 
      7.611187813723 
      7.611012766440 
      7.612085353156 
      7.612089558126 
      7.612068727299 
      7.611653686063 
      7.611645291790 
      7.611362756024 
      7.613175972450 
      7.613191803277 
      7.613163938415 
      7.612610294774 
      7.612582892987 
      7.612234595107 
      7.613718087139 
      7.613740098647 
      7.613717510262 
      7.613457863648 
      7.613420985130 
      7.613309605837 
      7.613232572261 
      7.613250814508 
      7.613242172406 
      7.613458843019 
      7.613427409736 
      7.613768209714 
      7.612168709446 
      7.612174654785 
      7.612181602975 
      7.612612321092 
      7.612599646286 
      7.613179818924 
      7.611337789178 
      7.611329785819 
      7.611348713840 
      7.611655090725 
      7.611665920072 
      7.612049850907 
      7.611033196841 
      7.611016075293 
      7.611040679436 
      7.611175463248 
      7.611204506250 
      7.611206819502 
      7.610986904373 
      7.610967617127 
      7.610989931827 
      7.611102597066 
      7.611138098180 
      7.610929678816 
      7.610991601410 
      7.610976054653 
      7.610987616894 
      7.611102711521 
      7.611131705960 
      7.610936081769 
      7.611263681771 
      7.611256393652 
      7.611251352377 
      7.611175219121 
      7.611187814026 
      7.611012778019 
      7.612085353129 
      7.612089558211 
      7.612068727083 
      7.611653685776 
      7.611645291937 
      7.611362756783 
      7.613175972420 
      7.613191803285 
      7.613163938394 
      7.612610294735 
      7.612582893002 
      7.612234595103 
      7.613718087135 
      7.613740098647 
      7.613717510261 
      7.613457863644 
      7.613420985131 
      7.613309605831 
      7.613232572261 
      7.613250814508 
      7.613242172406 
      7.613458843019 
      7.613427409736 
      7.613768209713 
      7.612168709446 
      7.612174654785 
      7.612181602975 
      7.612612321092 
      7.612599646286 
      7.613179818924 
      7.611337789178 
      7.611329785819 
      7.611348713840 
      7.611655090725 
      7.611665920072 
      7.612049850907 
      7.611033196841 
      7.611016075293 
      7.611040679436 
      7.611175463248 
      7.611204506250 
      7.611206819502 
      7.610986904373 
      7.610967617127 
      7.610989931827 
      7.611102597066 
      7.611138098180 
      7.610929678816 
      7.610991601410 
      7.610976054653 
      7.610987616894 
      7.611102711521 
      7.611131705960 
      7.610936081769 
      7.611263681771 
      7.611256393652 
      7.611251352377 
      7.611175219121 
      7.611187814026 
      7.611012778019 
      7.612085353129 
      7.612089558211 
      7.612068727083 
      7.611653685776 
      7.611645291937 
      7.611362756783 
      7.613175972420 
      7.613191803285 
      7.613163938394 
      7.612610294735 
      7.612582893002 
      7.612234595103 
      7.613718087135 
      7.613740098647 
      7.613717510261 
      7.613457863644 
      7.613420985131 
      7.613309605831 
      7.613232572261 
      7.613250814508 
      7.613242172406 
      7.613458843019 
      7.613427409736 
      7.613768209713 
      7.612168709446 
      7.612174654785 
      7.612181602975 
      7.612612321092 
      7.612599646286 
      7.613179818924 
      7.611337789178 
      7.611329785819 
      7.611348713840 
      7.611655090725 
      7.611665920072 
      7.612049850907 
      7.611033196841 
      7.611016075293 
      7.611040679436 
      7.611175463248 
      7.611204506250 
      7.611206819502 
      7.610986904373 
      7.610967617127 
      7.610989931827 
      7.611102597066 
      7.611138098180 
      7.610929678816 
      7.610991601410 
      7.610976054653 
      7.610987616894 
      7.611102711521 
      7.611131705960 
      7.610936081769 
      7.611263681771 
      7.611256393652 
      7.611251352377 
      7.611175219121 
      7.611187814026 
      7.611012778019 
      7.612085353129 
      7.612089558211 
      7.612068727083 
      7.611653685776 
      7.611645291937 
      7.611362756783 
      7.613175972420 
      7.613191803285 
      7.613163938394 
      7.612610294735 
      7.612582893002 
      7.612234595103 
      7.613718087135 
      7.613740098648 
      7.613717510261 
      7.613457863644 
      7.613420985131 
      7.613309605831 
      7.613232572262 
      7.613250814511 
      7.613242172408 
      7.613458843019 
      7.613427409736 
      7.613768209712 
      7.612168709468 
      7.612174654791 
      7.612181602968 
      7.612612321095 
      7.612599646295 
      7.613179818905 
      7.611337789391 
      7.611329785654 
      7.611348713437 
      7.611655090833 
      7.611665920162 
      7.612049850722 
      7.611033198611 
      7.611016072206 
      7.611040672318 
      7.611175464687 
      7.611204507035 
      7.611206818034 
      7.610986915563 
      7.610967588293 
      7.610989860510 
      7.611102611274 
      7.611138109390 
      7.610929663906 
      7.610991687705 
      7.610975988228 
      7.610987393469 
      7.611102816635 
      7.611131832578 
      7.610935919468 
      7.611265199295 
      7.611257709846 
      7.611252596053 
      7.611175489159 
      7.611188130227 
      7.611012019516 
      7.612087876158 
      7.612091335923 
      7.612069000408 
      7.611651301826 
      7.611643438257 
      7.611363936271 
      7.613176782782 
      7.613192523159 
      7.613163175009 
      7.612606158324 
      7.612581187558 
      7.612237801067 
      7.613686756533 
      7.613749397817 
      7.613721852586 
      7.613460010608 
      7.613416442573 
      7.613307920400 
      7.613727825327 
      7.613414183184 
      7.613312229129 
      7.613748989695 
      7.613447478818 
      7.613689397397 
      7.613176639553 
      7.612585708594 
      7.612234161891 
      7.613198942427 
      7.612598193924 
      7.613155356377 
      7.612074705736 
      7.611653346627 
      7.611359590346 
      7.612098507204 
      7.611647159929 
      7.612076316462 
      7.611248708627 
      7.611195153589 
      7.611008684218 
      7.611261403435 
      7.611179447864 
      7.611271079276 
      7.610980991199 
      7.611135050927 
      7.610933871588 
      7.610974524455 
      7.611114170163 
      7.611008839824 
      7.610982718515 
      7.611134859764 
      7.610930156399 
      7.610961382718 
      7.611116281735 
      7.611007461115 
      7.611035804794 
      7.611196676896 
      7.611208990442 
      7.611007960328 
      7.611186020771 
      7.611049057189 
      7.611347546949 
      7.611657976992 
      7.612052738283 
      7.611323184356 
      7.611658833859 
      7.611344508286 
      7.612184395054 
      7.612594869294 
      7.613182886956 
      7.612171973270 
      7.612608108102 
      7.612164852928 
      7.613248062787 
      7.613426299138 
      7.613770808420 
      7.613252688930 
      7.613448048640 
      7.613218544503 
      7.613724445240 
      7.613422843247 
      7.613310788668 
      7.613745636774 
      7.613444211554 
      7.613697440572 
      7.613169384760 
      7.612587624677 
      7.612233547436 
      7.613199245800 
      7.612598889819 
      7.613156640043 
      7.612070506491 
      7.611652582646 
      7.611359589528 
      7.612096533645 
      7.611649073884 
      7.612076469698 
      7.611248430438 
      7.611195148957 
      7.611009116173 
      7.611260129943 
      7.611179415298 
      7.611269609639 
      7.610981108148 
      7.611134917989 
      7.610934103343 
      7.610974617162 
      7.611114037318 
      7.611009023017 
      7.610982822593 
      7.611134839310 
      7.610930178271 
      7.610961454749 
      7.611116261844 
      7.611007517481 
      7.611035821613 
      7.611196676386 
      7.611208990145 
      7.611007971142 
      7.611186018868 
      7.611049061695 
      7.611347548234 
      7.611657977084 
      7.612052738113 
      7.611323185403 
      7.611658833659 
      7.611344508496 
      7.612184395109 
      7.612594869301 
      7.613182886949 
      7.612171973355 
      7.612608108079 
      7.612164852935 
      7.613248062789 
      7.613426299138 
      7.613770808421 
      7.613252688935 
      7.613448048638 
      7.613218544502 
      7.613724445240 
      7.613422843247 
      7.613310788668 
      7.613745636774 
      7.613444211554 
      7.613697440572 
      7.613169384760 
      7.612587624677 
      7.612233547436 
      7.613199245800 
      7.612598889819 
      7.613156640043 
      7.612070506491 
      7.611652582646 
      7.611359589528 
      7.612096533645 
      7.611649073884 
      7.612076469698 
      7.611248430438 
      7.611195148957 
      7.611009116173 
      7.611260129943 
      7.611179415298 
      7.611269609639 
      7.610981108148 
      7.611134917989 
      7.610934103343 
      7.610974617162 
      7.611114037318 
      7.611009023017 
      7.610982822593 
      7.611134839310 
      7.610930178271 
      7.610961454749 
      7.611116261844 
      7.611007517481 
      7.611035821613 
      7.611196676386 
      7.611208990145 
      7.611007971142 
      7.611186018868 
      7.611049061695 
      7.611347548234 
      7.611657977084 
      7.612052738113 
      7.611323185403 
      7.611658833659 
      7.611344508496 
      7.612184395109 
      7.612594869301 
      7.613182886949 
      7.612171973355 
      7.612608108079 
      7.612164852935 
      7.613248062789 
      7.613426299138 
      7.613770808421 
      7.613252688935 
      7.613448048638 
      7.613218544502 
      7.613724445240 
      7.613422843247 
      7.613310788668 
      7.613745636774 
      7.613444211554 
      7.613697440572 
      7.613169384760 
      7.612587624677 
      7.612233547436 
      7.613199245800 
      7.612598889819 
      7.613156640043 
      7.612070506491 
      7.611652582646 
      7.611359589528 
      7.612096533645 
      7.611649073884 
      7.612076469698 
      7.611248430438 
      7.611195148957 
      7.611009116173 
      7.611260129943 
      7.611179415298 
      7.611269609639 
      7.610981108148 
      7.611134917989 
      7.610934103343 
      7.610974617162 
      7.611114037318 
      7.611009023017 
      7.610982822593 
      7.611134839310 
      7.610930178271 
      7.610961454749 
      7.611116261844 
      7.611007517481 
      7.611035821613 
      7.611196676386 
      7.611208990145 
      7.611007971142 
      7.611186018868 
      7.611049061695 
      7.611347548234 
      7.611657977084 
      7.612052738113 
      7.611323185403 
      7.611658833659 
      7.611344508496 
      7.612184395109 
      7.612594869301 
      7.613182886949 
      7.612171973355 
      7.612608108079 
      7.612164852935 
      7.613248062789 
      7.613426299138 
      7.613770808422 
      7.613252688935 
      7.613448048638 
      7.613218544502 
      7.613724445240 
      7.613422843247 
      7.613310788673 
      7.613745636774 
      7.613444211555 
      7.613697440572 
      7.613169384756 
      7.612587624679 
      7.612233547466 
      7.613199245791 
      7.612598889842 
      7.613156640047 
      7.612070506456 
      7.611652582655 
      7.611359589503 
      7.612096533560 
      7.611649074128 
      7.612076469757 
      7.611248430265 
      7.611195148959 
      7.611009112711 
      7.611260129147 
      7.611179417381 
      7.611269609317 
      7.610981105377 
      7.611134920925 
      7.610934065229 
      7.610974608434 
      7.611114052639 
      7.611009008414 
      7.610982768880 
      7.611134897252 
      7.610930171642 
      7.610961375647 
      7.611116334999 
      7.611007384238 
      7.611035490629 
      7.611196751733 
      7.611210761907 
      7.611007706609 
      7.611185880752 
      7.611048792814 
      7.611348204365 
      7.611656224169 
      7.612051641276 
      7.611324118918 
      7.611656902007 
      7.611344219154 
      7.612184358776 
      7.612594536945 
      7.613180519325 
      7.612174922611 
      7.612608287757 
      7.612166006894 
      7.613253015037 
      7.613428231749 
      7.613766339841 
      7.613253933052 
      7.613448517878 
      7.613223615100 
      7.613223615100 
      7.613253933052 
      7.613253015037 
      7.613448517878 
      7.613428231749 
      7.613766339841 