# vtk DataFile Version 2.0
NDG-FEM NonhydrostaticStandingWave2d Simulation
ASCII
DATASET UNSTRUCTURED_GRID

POINTS 160 double
0.00000000000000000000  0.00000000000000000000  0.00000000000000000000
1.00000000000000000000  0.00000000000000000000  0.00000000000000000000
0.00000000000000000000  1.00000000000000000000  0.00000000000000000000
1.00000000000000000000  1.00000000000000000000  0.00000000000000000000
1.00000000000000000000  0.00000000000000000000  0.00000000000000000000
2.00000000000000000000  0.00000000000000000000  0.00000000000000000000
1.00000000000000000000  1.00000000000000000000  0.00000000000000000000
2.00000000000000000000  1.00000000000000000000  0.00000000000000000000
2.00000000000000000000  0.00000000000000000000  0.00000000000000000000
3.00000000000000000000  0.00000000000000000000  0.00000000000000000000
2.00000000000000000000  1.00000000000000000000  0.00000000000000000000
3.00000000000000000000  1.00000000000000000000  0.00000000000000000000
3.00000000000000000000  0.00000000000000000000  0.00000000000000000000
4.00000000000000000000  0.00000000000000000000  0.00000000000000000000
3.00000000000000000000  1.00000000000000000000  0.00000000000000000000
4.00000000000000000000  1.00000000000000000000  0.00000000000000000000
4.00000000000000000000  0.00000000000000000000  0.00000000000000000000
5.00000000000000000000  0.00000000000000000000  0.00000000000000000000
4.00000000000000000000  1.00000000000000000000  0.00000000000000000000
5.00000000000000000000  1.00000000000000000000  0.00000000000000000000
5.00000000000000000000  0.00000000000000000000  0.00000000000000000000
6.00000000000000000000  0.00000000000000000000  0.00000000000000000000
5.00000000000000000000  1.00000000000000000000  0.00000000000000000000
6.00000000000000000000  1.00000000000000000000  0.00000000000000000000
6.00000000000000000000  0.00000000000000000000  0.00000000000000000000
7.00000000000000000000  0.00000000000000000000  0.00000000000000000000
6.00000000000000000000  1.00000000000000000000  0.00000000000000000000
7.00000000000000000000  1.00000000000000000000  0.00000000000000000000
7.00000000000000000000  0.00000000000000000000  0.00000000000000000000
8.00000000000000000000  0.00000000000000000000  0.00000000000000000000
7.00000000000000000000  1.00000000000000000000  0.00000000000000000000
8.00000000000000000000  1.00000000000000000000  0.00000000000000000000
8.00000000000000000000  0.00000000000000000000  0.00000000000000000000
9.00000000000000000000  0.00000000000000000000  0.00000000000000000000
8.00000000000000000000  1.00000000000000000000  0.00000000000000000000
9.00000000000000000000  1.00000000000000000000  0.00000000000000000000
9.00000000000000000000  0.00000000000000000000  0.00000000000000000000
10.00000000000000000000  0.00000000000000000000  0.00000000000000000000
9.00000000000000000000  1.00000000000000000000  0.00000000000000000000
10.00000000000000000000  1.00000000000000000000  0.00000000000000000000
10.00000000000000000000  0.00000000000000000000  0.00000000000000000000
11.00000000000000000000  0.00000000000000000000  0.00000000000000000000
10.00000000000000000000  1.00000000000000000000  0.00000000000000000000
11.00000000000000000000  1.00000000000000000000  0.00000000000000000000
11.00000000000000000000  0.00000000000000000000  0.00000000000000000000
12.00000000000000000000  0.00000000000000000000  0.00000000000000000000
11.00000000000000000000  1.00000000000000000000  0.00000000000000000000
12.00000000000000000000  1.00000000000000000000  0.00000000000000000000
12.00000000000000000000  0.00000000000000000000  0.00000000000000000000
13.00000000000000000000  0.00000000000000000000  0.00000000000000000000
12.00000000000000000000  1.00000000000000000000  0.00000000000000000000
13.00000000000000000000  1.00000000000000000000  0.00000000000000000000
13.00000000000000000000  0.00000000000000000000  0.00000000000000000000
14.00000000000000000000  0.00000000000000000000  0.00000000000000000000
13.00000000000000000000  1.00000000000000000000  0.00000000000000000000
14.00000000000000000000  1.00000000000000000000  0.00000000000000000000
14.00000000000000000000  0.00000000000000000000  0.00000000000000000000
15.00000000000000000000  0.00000000000000000000  0.00000000000000000000
14.00000000000000000000  1.00000000000000000000  0.00000000000000000000
15.00000000000000000000  1.00000000000000000000  0.00000000000000000000
15.00000000000000000000  0.00000000000000000000  0.00000000000000000000
16.00000000000000000000  0.00000000000000000000  0.00000000000000000000
15.00000000000000000000  1.00000000000000000000  0.00000000000000000000
16.00000000000000000000  1.00000000000000000000  0.00000000000000000000
16.00000000000000000000  0.00000000000000000000  0.00000000000000000000
17.00000000000000000000  0.00000000000000000000  0.00000000000000000000
16.00000000000000000000  1.00000000000000000000  0.00000000000000000000
17.00000000000000000000  1.00000000000000000000  0.00000000000000000000
17.00000000000000000000  0.00000000000000000000  0.00000000000000000000
18.00000000000000000000  0.00000000000000000000  0.00000000000000000000
17.00000000000000000000  1.00000000000000000000  0.00000000000000000000
18.00000000000000000000  1.00000000000000000000  0.00000000000000000000
18.00000000000000000000  0.00000000000000000000  0.00000000000000000000
19.00000000000000000000  0.00000000000000000000  0.00000000000000000000
18.00000000000000000000  1.00000000000000000000  0.00000000000000000000
19.00000000000000000000  1.00000000000000000000  0.00000000000000000000
19.00000000000000000000  0.00000000000000000000  0.00000000000000000000
20.00000000000000000000  0.00000000000000000000  0.00000000000000000000
19.00000000000000000000  1.00000000000000000000  0.00000000000000000000
20.00000000000000000000  1.00000000000000000000  0.00000000000000000000
0.00000000000000000000  1.00000000000000000000  0.00000000000000000000
1.00000000000000000000  1.00000000000000000000  0.00000000000000000000
0.00000000000000000000  2.00000000000000000000  0.00000000000000000000
1.00000000000000000000  2.00000000000000000000  0.00000000000000000000
1.00000000000000000000  1.00000000000000000000  0.00000000000000000000
2.00000000000000000000  1.00000000000000000000  0.00000000000000000000
1.00000000000000000000  2.00000000000000000000  0.00000000000000000000
2.00000000000000000000  2.00000000000000000000  0.00000000000000000000
2.00000000000000000000  1.00000000000000000000  0.00000000000000000000
3.00000000000000000000  1.00000000000000000000  0.00000000000000000000
2.00000000000000000000  2.00000000000000000000  0.00000000000000000000
3.00000000000000000000  2.00000000000000000000  0.00000000000000000000
3.00000000000000000000  1.00000000000000000000  0.00000000000000000000
4.00000000000000000000  1.00000000000000000000  0.00000000000000000000
3.00000000000000000000  2.00000000000000000000  0.00000000000000000000
4.00000000000000000000  2.00000000000000000000  0.00000000000000000000
4.00000000000000000000  1.00000000000000000000  0.00000000000000000000
5.00000000000000000000  1.00000000000000000000  0.00000000000000000000
4.00000000000000000000  2.00000000000000000000  0.00000000000000000000
5.00000000000000000000  2.00000000000000000000  0.00000000000000000000
5.00000000000000000000  1.00000000000000000000  0.00000000000000000000
6.00000000000000000000  1.00000000000000000000  0.00000000000000000000
5.00000000000000000000  2.00000000000000000000  0.00000000000000000000
6.00000000000000000000  2.00000000000000000000  0.00000000000000000000
6.00000000000000000000  1.00000000000000000000  0.00000000000000000000
7.00000000000000000000  1.00000000000000000000  0.00000000000000000000
6.00000000000000000000  2.00000000000000000000  0.00000000000000000000
7.00000000000000000000  2.00000000000000000000  0.00000000000000000000
7.00000000000000000000  1.00000000000000000000  0.00000000000000000000
8.00000000000000000000  1.00000000000000000000  0.00000000000000000000
7.00000000000000000000  2.00000000000000000000  0.00000000000000000000
8.00000000000000000000  2.00000000000000000000  0.00000000000000000000
8.00000000000000000000  1.00000000000000000000  0.00000000000000000000
9.00000000000000000000  1.00000000000000000000  0.00000000000000000000
8.00000000000000000000  2.00000000000000000000  0.00000000000000000000
9.00000000000000000000  2.00000000000000000000  0.00000000000000000000
9.00000000000000000000  1.00000000000000000000  0.00000000000000000000
10.00000000000000000000  1.00000000000000000000  0.00000000000000000000
9.00000000000000000000  2.00000000000000000000  0.00000000000000000000
10.00000000000000000000  2.00000000000000000000  0.00000000000000000000
10.00000000000000000000  1.00000000000000000000  0.00000000000000000000
11.00000000000000000000  1.00000000000000000000  0.00000000000000000000
10.00000000000000000000  2.00000000000000000000  0.00000000000000000000
11.00000000000000000000  2.00000000000000000000  0.00000000000000000000
11.00000000000000000000  1.00000000000000000000  0.00000000000000000000
12.00000000000000000000  1.00000000000000000000  0.00000000000000000000
11.00000000000000000000  2.00000000000000000000  0.00000000000000000000
12.00000000000000000000  2.00000000000000000000  0.00000000000000000000
12.00000000000000000000  1.00000000000000000000  0.00000000000000000000
13.00000000000000000000  1.00000000000000000000  0.00000000000000000000
12.00000000000000000000  2.00000000000000000000  0.00000000000000000000
13.00000000000000000000  2.00000000000000000000  0.00000000000000000000
13.00000000000000000000  1.00000000000000000000  0.00000000000000000000
14.00000000000000000000  1.00000000000000000000  0.00000000000000000000
13.00000000000000000000  2.00000000000000000000  0.00000000000000000000
14.00000000000000000000  2.00000000000000000000  0.00000000000000000000
14.00000000000000000000  1.00000000000000000000  0.00000000000000000000
15.00000000000000000000  1.00000000000000000000  0.00000000000000000000
14.00000000000000000000  2.00000000000000000000  0.00000000000000000000
15.00000000000000000000  2.00000000000000000000  0.00000000000000000000
15.00000000000000000000  1.00000000000000000000  0.00000000000000000000
16.00000000000000000000  1.00000000000000000000  0.00000000000000000000
15.00000000000000000000  2.00000000000000000000  0.00000000000000000000
16.00000000000000000000  2.00000000000000000000  0.00000000000000000000
16.00000000000000000000  1.00000000000000000000  0.00000000000000000000
17.00000000000000000000  1.00000000000000000000  0.00000000000000000000
16.00000000000000000000  2.00000000000000000000  0.00000000000000000000
17.00000000000000000000  2.00000000000000000000  0.00000000000000000000
17.00000000000000000000  1.00000000000000000000  0.00000000000000000000
18.00000000000000000000  1.00000000000000000000  0.00000000000000000000
17.00000000000000000000  2.00000000000000000000  0.00000000000000000000
18.00000000000000000000  2.00000000000000000000  0.00000000000000000000
18.00000000000000000000  1.00000000000000000000  0.00000000000000000000
19.00000000000000000000  1.00000000000000000000  0.00000000000000000000
18.00000000000000000000  2.00000000000000000000  0.00000000000000000000
19.00000000000000000000  2.00000000000000000000  0.00000000000000000000
19.00000000000000000000  1.00000000000000000000  0.00000000000000000000
20.00000000000000000000  1.00000000000000000000  0.00000000000000000000
19.00000000000000000000  2.00000000000000000000  0.00000000000000000000
20.00000000000000000000  2.00000000000000000000  0.00000000000000000000

CELLS 40 200
4 0 1 3 2 
4 4 5 7 6 
4 8 9 11 10 
4 12 13 15 14 
4 16 17 19 18 
4 20 21 23 22 
4 24 25 27 26 
4 28 29 31 30 
4 32 33 35 34 
4 36 37 39 38 
4 40 41 43 42 
4 44 45 47 46 
4 48 49 51 50 
4 52 53 55 54 
4 56 57 59 58 
4 60 61 63 62 
4 64 65 67 66 
4 68 69 71 70 
4 72 73 75 74 
4 76 77 79 78 
4 80 81 83 82 
4 84 85 87 86 
4 88 89 91 90 
4 92 93 95 94 
4 96 97 99 98 
4 100 101 103 102 
4 104 105 107 106 
4 108 109 111 110 
4 112 113 115 114 
4 116 117 119 118 
4 120 121 123 122 
4 124 125 127 126 
4 128 129 131 130 
4 132 133 135 134 
4 136 137 139 138 
4 140 141 143 142 
4 144 145 147 146 
4 148 149 151 150 
4 152 153 155 154 
4 156 157 159 158 

CELL_TYPES 40
9 9 9 9 9 9 9 9 9 9 9 9 
9 9 9 9 9 9 9 9 9 9 9 9 
9 9 9 9 9 9 9 9 9 9 9 9 
9 9 9 9 

POINT_DATA 160
SCALARS  H  double
LOOKUP_TABLE default
      7.537741140095 
      7.536906813828 
      7.537741140095 
      7.536906813828 
      7.536917415247 
      7.549391520007 
      7.536917415247 
      7.549391520007 
      7.549008130220 
      7.566322718475 
      7.549008130220 
      7.566322718475 
      7.565901924645 
      7.588112894703 
      7.565901924645 
      7.588112894703 
      7.587597348440 
      7.612140865723 
      7.587597348440 
      7.612140865723 
      7.611605759315 
      7.636174272378 
      7.611605759315 
      7.636174272378 
      7.635666402875 
      7.657839071665 
      7.635666402875 
      7.657839071665 
      7.657406965742 
      7.675004510121 
      7.657406965742 
      7.675004510121 
      7.674685294187 
      7.686035227354 
      7.674685294187 
      7.686035227354 
      7.685795268426 
      7.689746456554 
      7.685795268426 
      7.689746456554 
      7.689746456554 
      7.685795268426 
      7.689746456554 
      7.685795268426 
      7.686035227354 
      7.674685294187 
      7.686035227354 
      7.674685294187 
      7.675004510121 
      7.657406965742 
      7.675004510121 
      7.657406965742 
      7.657839071665 
      7.635666402875 
      7.657839071665 
      7.635666402875 
      7.636174272378 
      7.611605759315 
      7.636174272378 
      7.611605759315 
      7.612140865723 
      7.587597348440 
      7.612140865723 
      7.587597348440 
      7.588112894703 
      7.565901924645 
      7.588112894703 
      7.565901924645 
      7.566322718475 
      7.549008130220 
      7.566322718475 
      7.549008130220 
      7.549391520007 
      7.536917415247 
      7.549391520007 
      7.536917415247 
      7.536906813828 
      7.537741140095 
      7.536906813828 
      7.537741140095 
      7.537741140095 
      7.536906813828 
      7.537741140095 
      7.536906813828 
      7.536917415247 
      7.549391520007 
      7.536917415247 
      7.549391520007 
      7.549008130220 
      7.566322718475 
      7.549008130220 
      7.566322718475 
      7.565901924645 
      7.588112894703 
      7.565901924645 
      7.588112894703 
      7.587597348440 
      7.612140865723 
      7.587597348440 
      7.612140865723 
      7.611605759315 
      7.636174272378 
      7.611605759315 
      7.636174272378 
      7.635666402875 
      7.657839071665 
      7.635666402875 
      7.657839071665 
      7.657406965742 
      7.675004510121 
      7.657406965742 
      7.675004510121 
      7.674685294187 
      7.686035227354 
      7.674685294187 
      7.686035227354 
      7.685795268426 
      7.689746456554 
      7.685795268426 
      7.689746456554 
      7.689746456554 
      7.685795268426 
      7.689746456554 
      7.685795268426 
      7.686035227354 
      7.674685294187 
      7.686035227354 
      7.674685294187 
      7.675004510121 
      7.657406965742 
      7.675004510121 
      7.657406965742 
      7.657839071665 
      7.635666402875 
      7.657839071665 
      7.635666402875 
      7.636174272378 
      7.611605759315 
      7.636174272378 
      7.611605759315 
      7.612140865723 
      7.587597348440 
      7.612140865723 
      7.587597348440 
      7.588112894703 
      7.565901924645 
      7.588112894703 
      7.565901924645 
      7.566322718475 
      7.549008130220 
      7.566322718475 
      7.549008130220 
      7.549391520007 
      7.536917415247 
      7.549391520007 
      7.536917415247 
      7.536906813828 
      7.537741140095 
      7.536906813828 
      7.537741140095 
SCALARS  HU  double
LOOKUP_TABLE default
     -0.003452649077 
     -0.103232372896 
     -0.003452649077 
     -0.103232372896 
     -0.109464278823 
     -0.203258770353 
     -0.109464278823 
     -0.203258770353 
     -0.207250780482 
     -0.280385227064 
     -0.207250780482 
     -0.280385227064 
     -0.283598383911 
     -0.330763493663 
     -0.283598383911 
     -0.330763493663 
     -0.332212375039 
     -0.348414984554 
     -0.332212375039 
     -0.348414984554 
     -0.348131966740 
     -0.331992225210 
     -0.348131966740 
     -0.331992225210 
     -0.329970456039 
     -0.283127595950 
     -0.329970456039 
     -0.283127595950 
     -0.279587720687 
     -0.206670422190 
     -0.279587720687 
     -0.206670422190 
     -0.202015692924 
     -0.110063192738 
     -0.202015692924 
     -0.110063192738 
     -0.105349085216 
     -0.002171218472 
     -0.105349085216 
     -0.002171218472 
      0.002171218472 
      0.105349085216 
      0.002171218472 
      0.105349085216 
      0.110063192738 
      0.202015692924 
      0.110063192738 
      0.202015692924 
      0.206670422190 
      0.279587720687 
      0.206670422190 
      0.279587720687 
      0.283127595950 
      0.329970456039 
      0.283127595950 
      0.329970456039 
      0.331992225210 
      0.348131966740 
      0.331992225210 
      0.348131966740 
      0.348414984554 
      0.332212375039 
      0.348414984554 
      0.332212375039 
      0.330763493663 
      0.283598383911 
      0.330763493663 
      0.283598383911 
      0.280385227064 
      0.207250780482 
      0.280385227064 
      0.207250780482 
      0.203258770353 
      0.109464278823 
      0.203258770353 
      0.109464278823 
      0.103232372896 
      0.003452649077 
      0.103232372896 
      0.003452649077 
     -0.003452649077 
     -0.103232372896 
     -0.003452649077 
     -0.103232372896 
     -0.109464278823 
     -0.203258770353 
     -0.109464278823 
     -0.203258770353 
     -0.207250780482 
     -0.280385227064 
     -0.207250780482 
     -0.280385227064 
     -0.283598383911 
     -0.330763493663 
     -0.283598383911 
     -0.330763493663 
     -0.332212375039 
     -0.348414984554 
     -0.332212375039 
     -0.348414984554 
     -0.348131966740 
     -0.331992225210 
     -0.348131966740 
     -0.331992225210 
     -0.329970456039 
     -0.283127595950 
     -0.329970456039 
     -0.283127595950 
     -0.279587720687 
     -0.206670422190 
     -0.279587720687 
     -0.206670422190 
     -0.202015692924 
     -0.110063192738 
     -0.202015692924 
     -0.110063192738 
     -0.105349085216 
     -0.002171218472 
     -0.105349085216 
     -0.002171218472 
      0.002171218472 
      0.105349085216 
      0.002171218472 
      0.105349085216 
      0.110063192738 
      0.202015692924 
      0.110063192738 
      0.202015692924 
      0.206670422190 
      0.279587720687 
      0.206670422190 
      0.279587720687 
      0.283127595950 
      0.329970456039 
      0.283127595950 
      0.329970456039 
      0.331992225210 
      0.348131966740 
      0.331992225210 
      0.348131966740 
      0.348414984554 
      0.332212375039 
      0.348414984554 
      0.332212375039 
      0.330763493663 
      0.283598383911 
      0.330763493663 
      0.283598383911 
      0.280385227064 
      0.207250780482 
      0.280385227064 
      0.207250780482 
      0.203258770353 
      0.109464278823 
      0.203258770353 
      0.109464278823 
      0.103232372896 
      0.003452649077 
      0.103232372896 
      0.003452649077 
SCALARS  HV  double
LOOKUP_TABLE default
      0.000000000000 
     -0.000000000000 
      0.000000000000 
     -0.000000000000 
      0.000000000000 
      0.000000000000 
     -0.000000000000 
     -0.000000000000 
     -0.000000000000 
      0.000000000000 
     -0.000000000000 
     -0.000000000000 
      0.000000000000 
      0.000000000000 
     -0.000000000000 
     -0.000000000000 
      0.000000000000 
      0.000000000000 
     -0.000000000000 
      0.000000000000 
     -0.000000000000 
      0.000000000000 
      0.000000000000 
     -0.000000000000 
      0.000000000000 
      0.000000000000 
     -0.000000000000 
     -0.000000000000 
      0.000000000000 
      0.000000000000 
     -0.000000000000 
     -0.000000000000 
     -0.000000000000 
     -0.000000000000 
     -0.000000000000 
     -0.000000000000 
     -0.000000000000 
      0.000000000000 
     -0.000000000000 
      0.000000000000 
     -0.000000000000 
      0.000000000000 
     -0.000000000000 
     -0.000000000000 
      0.000000000000 
      0.000000000000 
     -0.000000000000 
      0.000000000000 
      0.000000000000 
      0.000000000000 
      0.000000000000 
      0.000000000000 
     -0.000000000000 
      0.000000000000 
      0.000000000000 
     -0.000000000000 
      0.000000000000 
     -0.000000000000 
     -0.000000000000 
     -0.000000000000 
     -0.000000000000 
      0.000000000000 
      0.000000000000 
      0.000000000000 
      0.000000000000 
      0.000000000000 
     -0.000000000000 
      0.000000000000 
      0.000000000000 
     -0.000000000000 
      0.000000000000 
      0.000000000000 
     -0.000000000000 
      0.000000000000 
      0.000000000000 
      0.000000000000 
      0.000000000000 
      0.000000000000 
     -0.000000000000 
      0.000000000000 
     -0.000000000000 
      0.000000000000 
      0.000000000000 
      0.000000000000 
     -0.000000000000 
     -0.000000000000 
      0.000000000000 
      0.000000000000 
      0.000000000000 
     -0.000000000000 
      0.000000000000 
     -0.000000000000 
     -0.000000000000 
     -0.000000000000 
     -0.000000000000 
     -0.000000000000 
     -0.000000000000 
      0.000000000000 
     -0.000000000000 
      0.000000000000 
      0.000000000000 
      0.000000000000 
      0.000000000000 
     -0.000000000000 
      0.000000000000 
      0.000000000000 
     -0.000000000000 
      0.000000000000 
     -0.000000000000 
      0.000000000000 
      0.000000000000 
      0.000000000000 
      0.000000000000 
     -0.000000000000 
     -0.000000000000 
     -0.000000000000 
     -0.000000000000 
     -0.000000000000 
     -0.000000000000 
     -0.000000000000 
     -0.000000000000 
      0.000000000000 
      0.000000000000 
     -0.000000000000 
     -0.000000000000 
     -0.000000000000 
     -0.000000000000 
      0.000000000000 
      0.000000000000 
     -0.000000000000 
      0.000000000000 
      0.000000000000 
      0.000000000000 
      0.000000000000 
      0.000000000000 
     -0.000000000000 
      0.000000000000 
     -0.000000000000 
     -0.000000000000 
      0.000000000000 
      0.000000000000 
     -0.000000000000 
      0.000000000000 
     -0.000000000000 
     -0.000000000000 
      0.000000000000 
      0.000000000000 
      0.000000000000 
      0.000000000000 
     -0.000000000000 
      0.000000000000 
      0.000000000000 
      0.000000000000 
      0.000000000000 
      0.000000000000 
     -0.000000000000 
      0.000000000000 
      0.000000000000 
      0.000000000000 
      0.000000000000 
SCALARS  HW  double
LOOKUP_TABLE default
      0.392524900396 
      0.402413921868 
      0.392524900396 
      0.402413921868 
      0.397943504944 
      0.334137670098 
      0.397943504944 
      0.334137670098 
      0.331328461723 
      0.242633460126 
      0.331328461723 
      0.242633460126 
      0.240007994517 
      0.124752911289 
      0.240007994517 
      0.124752911289 
      0.123114387497 
     -0.004814237240 
      0.123114387497 
     -0.004814237240 
     -0.005414191716 
     -0.134033693729 
     -0.005414191716 
     -0.134033693729 
     -0.133575700196 
     -0.250177537696 
     -0.133575700196 
     -0.250177537696 
     -0.248834872577 
     -0.341980293372 
     -0.248834872577 
     -0.341980293372 
     -0.340022886391 
     -0.401115797743 
     -0.340022886391 
     -0.401115797743 
     -0.398909611939 
     -0.420649522781 
     -0.398909611939 
     -0.420649522781 
     -0.420649522781 
     -0.398909611939 
     -0.420649522781 
     -0.398909611939 
     -0.401115797743 
     -0.340022886391 
     -0.401115797743 
     -0.340022886391 
     -0.341980293372 
     -0.248834872577 
     -0.341980293372 
     -0.248834872577 
     -0.250177537696 
     -0.133575700196 
     -0.250177537696 
     -0.133575700196 
     -0.134033693729 
     -0.005414191716 
     -0.134033693729 
     -0.005414191716 
     -0.004814237240 
      0.123114387497 
     -0.004814237240 
      0.123114387497 
      0.124752911289 
      0.240007994517 
      0.124752911289 
      0.240007994517 
      0.242633460126 
      0.331328461723 
      0.242633460126 
      0.331328461723 
      0.334137670098 
      0.397943504944 
      0.334137670098 
      0.397943504944 
      0.402413921868 
      0.392524900396 
      0.402413921868 
      0.392524900396 
      0.392524900396 
      0.402413921868 
      0.392524900396 
      0.402413921868 
      0.397943504944 
      0.334137670098 
      0.397943504944 
      0.334137670098 
      0.331328461723 
      0.242633460126 
      0.331328461723 
      0.242633460126 
      0.240007994517 
      0.124752911289 
      0.240007994517 
      0.124752911289 
      0.123114387497 
     -0.004814237240 
      0.123114387497 
     -0.004814237240 
     -0.005414191716 
     -0.134033693729 
     -0.005414191716 
     -0.134033693729 
     -0.133575700196 
     -0.250177537696 
     -0.133575700196 
     -0.250177537696 
     -0.248834872577 
     -0.341980293372 
     -0.248834872577 
     -0.341980293372 
     -0.340022886391 
     -0.401115797743 
     -0.340022886391 
     -0.401115797743 
     -0.398909611939 
     -0.420649522781 
     -0.398909611939 
     -0.420649522781 
     -0.420649522781 
     -0.398909611939 
     -0.420649522781 
     -0.398909611939 
     -0.401115797743 
     -0.340022886391 
     -0.401115797743 
     -0.340022886391 
     -0.341980293372 
     -0.248834872577 
     -0.341980293372 
     -0.248834872577 
     -0.250177537696 
     -0.133575700196 
     -0.250177537696 
     -0.133575700196 
     -0.134033693729 
     -0.005414191716 
     -0.134033693729 
     -0.005414191716 
     -0.004814237240 
      0.123114387497 
     -0.004814237240 
      0.123114387497 
      0.124752911289 
      0.240007994517 
      0.124752911289 
      0.240007994517 
      0.242633460126 
      0.331328461723 
      0.242633460126 
      0.331328461723 
      0.334137670098 
      0.397943504944 
      0.334137670098 
      0.397943504944 
      0.402413921868 
      0.392524900396 
      0.402413921868 
      0.392524900396 
SCALARS  q  double
LOOKUP_TABLE default
      0.416645731143 
      0.441753829862 
      0.416645731143 
      0.441753829862 
      0.436663245078 
      0.364330692915 
      0.436663245078 
      0.364330692915 
      0.361211405997 
      0.266677967413 
      0.361211405997 
      0.266677967413 
      0.263405394024 
      0.139946459439 
      0.263405394024 
      0.139946459439 
      0.137404801244 
      0.000621751323 
      0.137404801244 
      0.000621751323 
     -0.001061305300 
     -0.138670467356 
     -0.001061305300 
     -0.138670467356 
     -0.139302739211 
     -0.264213318286 
     -0.139302739211 
     -0.264213318287 
     -0.263740559337 
     -0.363747986130 
     -0.263740559337 
     -0.363747986130 
     -0.362257214682 
     -0.428080210119 
     -0.362257214682 
     -0.428080210119 
     -0.425890604647 
     -0.449389273833 
     -0.425890604647 
     -0.449389273833 
     -0.449389273833 
     -0.425890604647 
     -0.449389273833 
     -0.425890604647 
     -0.428080210119 
     -0.362257214682 
     -0.428080210119 
     -0.362257214682 
     -0.363747986130 
     -0.263740559337 
     -0.363747986130 
     -0.263740559337 
     -0.264213318286 
     -0.139302739211 
     -0.264213318286 
     -0.139302739211 
     -0.138670467356 
     -0.001061305300 
     -0.138670467356 
     -0.001061305300 
      0.000621751323 
      0.137404801244 
      0.000621751323 
      0.137404801244 
      0.139946459439 
      0.263405394024 
      0.139946459439 
      0.263405394024 
      0.266677967413 
      0.361211405997 
      0.266677967413 
      0.361211405997 
      0.364330692915 
      0.436663245078 
      0.364330692915 
      0.436663245078 
      0.441753829862 
      0.416645731143 
      0.441753829862 
      0.416645731143 
      0.416645731143 
      0.441753829862 
      0.416645731143 
      0.441753829862 
      0.436663245078 
      0.364330692915 
      0.436663245078 
      0.364330692915 
      0.361211405997 
      0.266677967413 
      0.361211405997 
      0.266677967413 
      0.263405394024 
      0.139946459439 
      0.263405394024 
      0.139946459439 
      0.137404801244 
      0.000621751323 
      0.137404801244 
      0.000621751323 
     -0.001061305300 
     -0.138670467356 
     -0.001061305300 
     -0.138670467356 
     -0.139302739211 
     -0.264213318287 
     -0.139302739211 
     -0.264213318287 
     -0.263740559337 
     -0.363747986130 
     -0.263740559337 
     -0.363747986130 
     -0.362257214682 
     -0.428080210119 
     -0.362257214682 
     -0.428080210119 
     -0.425890604647 
     -0.449389273833 
     -0.425890604647 
     -0.449389273833 
     -0.449389273833 
     -0.425890604647 
     -0.449389273833 
     -0.425890604647 
     -0.428080210119 
     -0.362257214682 
     -0.428080210119 
     -0.362257214682 
     -0.363747986130 
     -0.263740559337 
     -0.363747986130 
     -0.263740559337 
     -0.264213318286 
     -0.139302739211 
     -0.264213318286 
     -0.139302739211 
     -0.138670467356 
     -0.001061305300 
     -0.138670467356 
     -0.001061305300 
      0.000621751323 
      0.137404801244 
      0.000621751323 
      0.137404801244 
      0.139946459439 
      0.263405394024 
      0.139946459439 
      0.263405394024 
      0.266677967413 
      0.361211405997 
      0.266677967413 
      0.361211405997 
      0.364330692915 