# vtk DataFile Version 2.0
NDG-FEM NonhydrostaticStandingWave2d Simulation
ASCII
DATASET UNSTRUCTURED_GRID

POINTS 480 double
0.00000000000000000000  0.00000000000000000000  0.00000000000000000000
1.00000000000000000000  0.00000000000000000000  0.00000000000000000000
2.00000000000000000000  0.00000000000000000000  0.00000000000000000000
0.00000000000000000000  1.00000000000000000000  0.00000000000000000000
1.00000000000000000000  1.00000000000000000000  0.00000000000000000000
0.00000000000000000000  2.00000000000000000000  0.00000000000000000000
2.00000000000000000000  0.00000000000000000000  0.00000000000000000000
3.00000000000000000000  0.00000000000000000000  0.00000000000000000000
4.00000000000000000000  0.00000000000000000000  0.00000000000000000000
2.00000000000000000000  1.00000000000000000000  0.00000000000000000000
3.00000000000000000000  1.00000000000000000000  0.00000000000000000000
2.00000000000000000000  2.00000000000000000000  0.00000000000000000000
4.00000000000000000000  0.00000000000000000000  0.00000000000000000000
5.00000000000000000000  0.00000000000000000000  0.00000000000000000000
6.00000000000000000000  0.00000000000000000000  0.00000000000000000000
4.00000000000000000000  1.00000000000000000000  0.00000000000000000000
5.00000000000000000000  1.00000000000000000000  0.00000000000000000000
4.00000000000000000000  2.00000000000000000000  0.00000000000000000000
6.00000000000000000000  0.00000000000000000000  0.00000000000000000000
7.00000000000000000000  0.00000000000000000000  0.00000000000000000000
8.00000000000000000000  0.00000000000000000000  0.00000000000000000000
6.00000000000000000000  1.00000000000000000000  0.00000000000000000000
7.00000000000000000000  1.00000000000000000000  0.00000000000000000000
6.00000000000000000000  2.00000000000000000000  0.00000000000000000000
8.00000000000000000000  0.00000000000000000000  0.00000000000000000000
9.00000000000000000000  0.00000000000000000000  0.00000000000000000000
10.00000000000000000000  0.00000000000000000000  0.00000000000000000000
8.00000000000000000000  1.00000000000000000000  0.00000000000000000000
9.00000000000000000000  1.00000000000000000000  0.00000000000000000000
8.00000000000000000000  2.00000000000000000000  0.00000000000000000000
10.00000000000000000000  0.00000000000000000000  0.00000000000000000000
11.00000000000000000000  0.00000000000000000000  0.00000000000000000000
12.00000000000000000000  0.00000000000000000000  0.00000000000000000000
10.00000000000000000000  1.00000000000000000000  0.00000000000000000000
11.00000000000000000000  1.00000000000000000000  0.00000000000000000000
10.00000000000000000000  2.00000000000000000000  0.00000000000000000000
12.00000000000000000000  0.00000000000000000000  0.00000000000000000000
13.00000000000000000000  0.00000000000000000000  0.00000000000000000000
14.00000000000000000000  0.00000000000000000000  0.00000000000000000000
12.00000000000000000000  1.00000000000000000000  0.00000000000000000000
13.00000000000000000000  1.00000000000000000000  0.00000000000000000000
12.00000000000000000000  2.00000000000000000000  0.00000000000000000000
14.00000000000000000000  0.00000000000000000000  0.00000000000000000000
15.00000000000000000000  0.00000000000000000000  0.00000000000000000000
16.00000000000000000000  0.00000000000000000000  0.00000000000000000000
14.00000000000000000000  1.00000000000000000000  0.00000000000000000000
15.00000000000000000000  1.00000000000000000000  0.00000000000000000000
14.00000000000000000000  2.00000000000000000000  0.00000000000000000000
16.00000000000000000000  0.00000000000000000000  0.00000000000000000000
17.00000000000000000000  0.00000000000000000000  0.00000000000000000000
18.00000000000000000000  0.00000000000000000000  0.00000000000000000000
16.00000000000000000000  1.00000000000000000000  0.00000000000000000000
17.00000000000000000000  1.00000000000000000000  0.00000000000000000000
16.00000000000000000000  2.00000000000000000000  0.00000000000000000000
18.00000000000000000000  0.00000000000000000000  0.00000000000000000000
19.00000000000000000000  0.00000000000000000000  0.00000000000000000000
20.00000000000000000000  0.00000000000000000000  0.00000000000000000000
18.00000000000000000000  1.00000000000000000000  0.00000000000000000000
19.00000000000000000000  1.00000000000000000000  0.00000000000000000000
18.00000000000000000000  2.00000000000000000000  0.00000000000000000000
2.00000000000000000000  0.00000000000000000000  0.00000000000000000000
2.00000000000000000000  1.00000000000000000000  0.00000000000000000000
2.00000000000000000000  2.00000000000000000000  0.00000000000000000000
1.00000000000000000000  1.00000000000000000000  0.00000000000000000000
1.00000000000000000000  2.00000000000000000000  0.00000000000000000000
0.00000000000000000000  2.00000000000000000000  0.00000000000000000000
4.00000000000000000000  0.00000000000000000000  0.00000000000000000000
4.00000000000000000000  1.00000000000000000000  0.00000000000000000000
4.00000000000000000000  2.00000000000000000000  0.00000000000000000000
3.00000000000000000000  1.00000000000000000000  0.00000000000000000000
3.00000000000000000000  2.00000000000000000000  0.00000000000000000000
2.00000000000000000000  2.00000000000000000000  0.00000000000000000000
6.00000000000000000000  0.00000000000000000000  0.00000000000000000000
6.00000000000000000000  1.00000000000000000000  0.00000000000000000000
6.00000000000000000000  2.00000000000000000000  0.00000000000000000000
5.00000000000000000000  1.00000000000000000000  0.00000000000000000000
5.00000000000000000000  2.00000000000000000000  0.00000000000000000000
4.00000000000000000000  2.00000000000000000000  0.00000000000000000000
8.00000000000000000000  0.00000000000000000000  0.00000000000000000000
8.00000000000000000000  1.00000000000000000000  0.00000000000000000000
8.00000000000000000000  2.00000000000000000000  0.00000000000000000000
7.00000000000000000000  1.00000000000000000000  0.00000000000000000000
7.00000000000000000000  2.00000000000000000000  0.00000000000000000000
6.00000000000000000000  2.00000000000000000000  0.00000000000000000000
10.00000000000000000000  0.00000000000000000000  0.00000000000000000000
10.00000000000000000000  1.00000000000000000000  0.00000000000000000000
10.00000000000000000000  2.00000000000000000000  0.00000000000000000000
9.00000000000000000000  1.00000000000000000000  0.00000000000000000000
9.00000000000000000000  2.00000000000000000000  0.00000000000000000000
8.00000000000000000000  2.00000000000000000000  0.00000000000000000000
12.00000000000000000000  0.00000000000000000000  0.00000000000000000000
12.00000000000000000000  1.00000000000000000000  0.00000000000000000000
12.00000000000000000000  2.00000000000000000000  0.00000000000000000000
11.00000000000000000000  1.00000000000000000000  0.00000000000000000000
11.00000000000000000000  2.00000000000000000000  0.00000000000000000000
10.00000000000000000000  2.00000000000000000000  0.00000000000000000000
14.00000000000000000000  0.00000000000000000000  0.00000000000000000000
14.00000000000000000000  1.00000000000000000000  0.00000000000000000000
14.00000000000000000000  2.00000000000000000000  0.00000000000000000000
13.00000000000000000000  1.00000000000000000000  0.00000000000000000000
13.00000000000000000000  2.00000000000000000000  0.00000000000000000000
12.00000000000000000000  2.00000000000000000000  0.00000000000000000000
16.00000000000000000000  0.00000000000000000000  0.00000000000000000000
16.00000000000000000000  1.00000000000000000000  0.00000000000000000000
16.00000000000000000000  2.00000000000000000000  0.00000000000000000000
15.00000000000000000000  1.00000000000000000000  0.00000000000000000000
15.00000000000000000000  2.00000000000000000000  0.00000000000000000000
14.00000000000000000000  2.00000000000000000000  0.00000000000000000000
18.00000000000000000000  0.00000000000000000000  0.00000000000000000000
18.00000000000000000000  1.00000000000000000000  0.00000000000000000000
18.00000000000000000000  2.00000000000000000000  0.00000000000000000000
17.00000000000000000000  1.00000000000000000000  0.00000000000000000000
17.00000000000000000000  2.00000000000000000000  0.00000000000000000000
16.00000000000000000000  2.00000000000000000000  0.00000000000000000000
20.00000000000000000000  0.00000000000000000000  0.00000000000000000000
20.00000000000000000000  1.00000000000000000000  0.00000000000000000000
20.00000000000000000000  2.00000000000000000000  0.00000000000000000000
19.00000000000000000000  1.00000000000000000000  0.00000000000000000000
19.00000000000000000000  2.00000000000000000000  0.00000000000000000000
18.00000000000000000000  2.00000000000000000000  0.00000000000000000000
0.00000000000000000000  2.00000000000000000000  0.00000000000000000000
1.00000000000000000000  2.00000000000000000000  0.00000000000000000000
2.00000000000000000000  2.00000000000000000000  0.00000000000000000000
0.00000000000000000000  3.00000000000000000000  0.00000000000000000000
1.00000000000000000000  3.00000000000000000000  0.00000000000000000000
0.00000000000000000000  4.00000000000000000000  0.00000000000000000000
2.00000000000000000000  2.00000000000000000000  0.00000000000000000000
3.00000000000000000000  2.00000000000000000000  0.00000000000000000000
4.00000000000000000000  2.00000000000000000000  0.00000000000000000000
2.00000000000000000000  3.00000000000000000000  0.00000000000000000000
3.00000000000000000000  3.00000000000000000000  0.00000000000000000000
2.00000000000000000000  4.00000000000000000000  0.00000000000000000000
4.00000000000000000000  2.00000000000000000000  0.00000000000000000000
5.00000000000000000000  2.00000000000000000000  0.00000000000000000000
6.00000000000000000000  2.00000000000000000000  0.00000000000000000000
4.00000000000000000000  3.00000000000000000000  0.00000000000000000000
5.00000000000000000000  3.00000000000000000000  0.00000000000000000000
4.00000000000000000000  4.00000000000000000000  0.00000000000000000000
[...]
POINT_DATA 480
SCALARS  H  double
LOOKUP_TABLE default
      7.522397264579 
      7.526735432578 
      7.539492044457 
      7.522389839800 
      7.526724798026 
      7.522341681735 
      7.539374110528 
      7.559308525889 
      7.584249215060 
      7.539438854502 
      7.559276480852 
      7.539431840577 
      7.584084042238 
      7.612022109170 
      7.639613809792 
      7.584226379159 
      7.611959997331 
      7.584214799535 
      7.639460401599 
      7.664740977865 
      7.684445600667 
      7.639635835037 
      7.664670055389 
      7.639619389250 
      7.684359346613 
      7.697316355201 
      7.701619004551 
      7.684501408126 
      7.697267032836 
      7.684485796182 
      7.701621138597 
      7.697291510688 
      7.684543249525 
      7.701673524584 
      7.697282377375 
      7.701662828403 
      7.684654824184 
      7.664673232239 
      7.639751585666 
      7.684582017326 
      7.664711954037 
      7.684581391444 
      7.639928405537 
      7.611939141909 
      7.584364036838 
      7.639759660300 
      7.612010857425 
      7.639766834264 
      7.584532224379 
      7.559244491181 
      7.539545682994 
      7.584345536414 
      7.559315792001 
      7.584357516236 
      7.539640712592 
      7.526697647214 
      7.522442568840 
      7.539512767762 
      7.526746988552 
      7.539520979280 
      7.539438512527 
      7.539496118276 
      7.539504413206 
      7.526729516862 
      7.526728858743 
      7.522351305855 
      7.584176496240 
      7.584315713349 
      7.584323089479 
      7.559293982143 
      7.559292967034 
      7.539387056067 
      7.639548140634 
      7.639724689459 
      7.639722704705 
      7.611984984819 
      7.611992390133 
      7.584143067322 
      7.684411604664 
      7.684556898335 
      7.684543618158 
      7.664692945464 
      7.664707790260 
      7.639548555004 
      7.701617482689 
      7.701668119459 
      7.701656355795 
      7.697277757558 
      7.697294590132 
      7.684445674216 
      7.684587432261 
      7.684517515761 
      7.684511578570 
      7.697278560182 
      7.697291520555 
      7.701669299693 
      7.639825479158 
      7.639665544825 
      7.639660970891 
      7.664696724984 
      7.664698008953 
      7.684628612700 
      7.584435144386 
      7.584257506835 
      7.584255656198 
      7.611991082626 
      7.611977777962 
      7.639841601888 
      7.539586862550 
      7.539462586936 
      7.539458874345 
      7.559299057986 
      7.559278423252 
      7.584431482311 
      7.522422167542 
      7.522374113302 
      7.522368352655 
      7.526740035311 
      7.526722229332 
      7.539567817177 
      7.522362923462 
      7.526721521760 
      7.539543567606 
      7.522376714622 
      7.526725839438 
      7.522343303209 
      7.539436984643 
      7.559272792607 
      7.584397435207 
      7.539456073439 
      7.559279968778 
      7.539444844664 
      7.584221432319 
      7.611966560490 
      7.639806926568 
      7.584246205241 
      7.611974983369 
      7.584232536731 
      7.639624850873 
      7.664686303046 
      7.684605189397 
      7.639647901713 
      7.664692496197 
      7.639636129344 
      7.684487276285 
      7.697285876615 
      7.701665570207 
      7.684499926421 
      7.697287514281 
      7.684494930151 
      7.701656363905 
      7.697298546173 
      7.684465844795 
      7.701657996092 
      7.697291967853 
      7.701661348694 
      7.684567668698 
      7.664717608999 
      7.639583210163 
      7.684557049491 
      7.664708571594 
      7.684568989582 
      7.639761117026 
      7.612002214643 
      7.584179221465 
      7.639738110138 
      7.611995614202 
      7.639749597440 
      7.584361568677 
      7.559298401952 
      7.539413128512 
      7.584335170724 
      7.559297329693 
      7.584341222716 
      7.539532124850 
      7.526730565943 
      7.522360940988 
      7.539511291036 
      7.526732267321 
      7.539509341986 
      7.539497146875 
      7.539511468396 
      7.539519440120 
      7.526731920199 
      7.526729137304 
      7.522351761700 
      7.584323832739 
      7.584335432060 
      7.584344442973 
      7.559297430352 
      7.559297240387 
      7.539399170584 
      7.639732573224 
      7.639738821182 
      7.639744232754 
      7.611996608368 
      7.611998596640 
      7.584159711305 
      7.684558532094 
      7.684557539638 
      7.684557081015 
      7.664709888338 
      7.664713614286 
      7.639564341989 
      7.701661606202 
      7.701658019760 
      7.701655451052 
      7.697292732624 
      7.697296260570 
      7.684454362429 
      7.684506259134 
      7.684499477924 
      7.684496186262 
      7.697286661841 
      7.697288697457 
      7.701665906290 
      7.639654466164 
      7.639647135611 
      7.639640023944 
      7.664691492854 
      7.664691826814 
      7.684615868620 
      7.584251310734 
      7.584245774362 
      7.584236987639 
      7.611974450267 
      7.611971763870 
      7.639824152405 
      7.539458216533 
      7.539455861837 
      7.539447842729 
      7.559280318394 
      7.559275713081 
      7.584414836406 
      7.522351989380 
      7.522376120015 
      7.522362515485 
      7.526726435074 
      7.526720585033 
      7.539555956249 
      7.522362515485 
      7.526720585033 
      7.539555956249 
      7.522376120015 
      7.526726435074 
      7.522351989380 
      7.539447842729 
      7.559275713081 
      7.584414836406 
      7.539455861837 
      7.559280318394 
      7.539458216533 
      7.584236987639 
      7.611971763870 
      7.639824152405 
      7.584245774362 
      7.611974450267 
      7.584251310734 
      7.639640023944 
      7.664691826814 
      7.684615868620 
      7.639647135611 
      7.664691492854 
      7.639654466164 
      7.684496186262 
      7.697288697457 
      7.701665906290 
      7.684499477924 
      7.697286661841 
      7.684506259134 
      7.701655451052 
      7.697296260570 
      7.684454362429 
      7.701658019760 
      7.697292732624 
      7.701661606202 
      7.684557081015 
      7.664713614286 
      7.639564341989 
      7.684557539638 
      7.664709888338 
      7.684558532094 
      7.639744232754 
      7.611998596640 
      7.584159711305 
      7.639738821182 
      7.611996608368 
      7.639732573224 
      7.584344442973 
      7.559297240387 
      7.539399170584 
      7.584335432060 
      7.559297430352 
      7.584323832739 
      7.539519440120 
      7.526729137304 
      7.522351761700 
      7.539511468396 
      7.526731920199 
      7.539497146875 
      7.539509341986 
      7.539511291036 
      7.539532124850 
      7.526732267321 
      7.526730565943 
      7.522360940988 
      7.584341222716 
      7.584335170724 
      7.584361568677 
      7.559297329693 
      7.559298401952 
      7.539413128512 
      7.639749597440 
      7.639738110138 
      7.639761117026 
      7.611995614202 
      7.612002214643 
      7.584179221465 
      7.684568989582 
      7.684557049491 
      7.684567668698 
      7.664708571594 
      7.664717608999 
      7.639583210163 
      7.701661348694 
      7.701657996092 
      7.701656363905 
      7.697291967853 
      7.697298546173 
      7.684465844795 
      7.684494930151 
      7.684499926421 
      7.684487276285 
      7.697287514281 
      7.697285876615 
      7.701665570207 
      7.639636129344 
      7.639647901713 
      7.639624850873 
      7.664692496197 
      7.664686303046 
      7.684605189397 
      7.584232536731 
      7.584246205241 
      7.584221432319 
      7.611974983369 
      7.611966560490 
      7.639806926568 
      7.539444844664 
      7.539456073439 
      7.539436984643 
      7.559279968778 
      7.559272792607 
      7.584397435207 
      7.522343303209 
      7.522376714622 
      7.522362923462 
      7.526725839438 
      7.526721521760 
      7.539543567606 
      7.522368352655 
      7.526722229332 
      7.539567817177 
      7.522374113302 
      7.526740035311 
      7.522422167542 
      7.539458874345 
      7.559278423252 
      7.584431482311 
      7.539462586936 
      7.559299057986 
      7.539586862550 
      7.584255656198 
      7.611977777962 
      7.639841601888 
      7.584257506835 
      7.611991082626 
      7.584435144386 
      7.639660970891 
      7.664698008953 
      7.684628612700 
      7.639665544825 
      7.664696724984 
      7.639825479158 
      7.684511578570 
      7.697291520555 
      7.701669299693 
      7.684517515761 
      7.697278560182 
      7.684587432261 
      7.701656355795 
      7.697294590132 
      7.684445674216 
      7.701668119459 
      7.697277757558 
      7.701617482689 
      7.684543618158 
      7.664707790260 
      7.639548555004 
      7.684556898335 
      7.664692945464 
      7.684411604664 
      7.639722704705 
      7.611992390133 
      7.584143067322 
      7.639724689459 
      7.611984984819 
      7.639548140634 
      7.584323089479 
      7.559292967034 
      7.539387056067 
      7.584315713349 
      7.559293982143 
      7.584176496240 
      7.539504413206 
      7.526728858743 
      7.522351305855 
      7.539496118276 
      7.526729516862 
      7.539438512527 
      7.539520979280 
      7.539512767762 
      7.539640712592 
      7.526746988552 
      7.526697647214 
      7.522442568840 
      7.584357516236 
      7.584345536414 
      7.584532224379 
      7.559315792001 
      7.559244491181 
      7.539545682994 
      7.639766834264 
      7.639759660300 
      7.639928405537 
      7.612010857425 
      7.611939141909 
      7.584364036838 
      7.684581391444 
      7.684582017326 
      7.684654824184 
      7.664711954037 
      7.664673232239 
      7.639751585666 
      7.701662828403 
      7.701673524584 
      7.701621138597 
      7.697282377375 
      7.697291510688 
      7.684543249525 
      7.684485796182 
      7.684501408126 
      7.684359346613 
      7.697267032836 
      7.697316355201 
      7.701619004551 
      7.639619389250 
      7.639635835037 
      7.639460401599 
      7.664670055389 
      7.664740977865 
      7.684445600667 
      7.584214799535 
      7.584226379159 
      7.584084042238 
      7.611959997331 
      7.612022109170 
      7.639613809792 
      7.539431840577 
      7.539438854502 
      7.539374110528 
      7.559276480852 
      7.559308525889 
      7.584249215060 
      7.522341681735 
      7.522389839800 
      7.522397264579 
      7.526724798026 
      7.526735432578 
      7.539492044457 
SCALARS  HU  double
LOOKUP_TABLE default
      0.000191823378 
     -0.075547933810 
     -0.146003579650 
      0.000119418500 
     -0.075757696873 
      0.000300496487 
     -0.144630193621 
     -0.198241676113 
     -0.234880680285 
     -0.144488050810 
     -0.198497490467 
     -0.144387761581 
     -0.233867585411 
     -0.244961366159 
     -0.234020729837 
     -0.233754987336 
     -0.245148696631 
     -0.233730577014 
     -0.233627327295 
     -0.198097800690 
     -0.143920353821 
     -0.233595062913 
     -0.198150033151 
     -0.233665875139 
     -0.144286277757 
     -0.075744275494 
      0.000939394073 
     -0.144344195011 
     -0.075670834694 
     -0.144461129318 
      0.000020126651 
      0.075380743128 
      0.145490991863 
     -0.000139945906 
      0.075598525858 
     -0.000274935395 
      0.144316340048 
      0.197814546143 
      0.234688491359 
      0.144121396868 
      0.198122112048 
      0.143985593793 
      0.233689058689 
      0.244923348268 
      0.234321041591 
      0.233498478217 
      0.245168268009 
      0.233478922375 
      0.233920501048 
      0.198466640106 
      0.144306835174 
      0.233815882263 
      0.198557066362 
      0.233910061029 
      0.144670367340 
      0.075986065326 
     -0.000977479941 
      0.144696932595 
      0.075852476905 
      0.144888731727 
     -0.145075423236 
     -0.144701402806 
     -0.144940841040 
     -0.076014981957 
     -0.075946015389 
      0.000969869809 
     -0.234098561053 
     -0.233816738173 
     -0.234057159280 
     -0.198656781431 
     -0.198531924184 
     -0.144138814005 
     -0.233612085701 
     -0.233505329040 
     -0.233678703157 
     -0.245180332787 
     -0.245037129059 
     -0.233938500479 
     -0.144022163701 
     -0.144133189756 
     -0.144174069892 
     -0.198046239175 
     -0.197927477567 
     -0.234236765496 
      0.000338331464 
      0.000125224797 
      0.000188170184 
     -0.075474333431 
     -0.075427051923 
     -0.145165502600 
      0.144633572052 
      0.144339551425 
      0.144513881556 
      0.075810713872 
      0.075755202494 
     -0.000813060352 
      0.233882894876 
      0.233602451993 
      0.233835942480 
      0.198272590975 
      0.198129383822 
      0.143815606718 
      0.233898465796 
      0.233761549904 
      0.233954565356 
      0.245195813822 
      0.245023749911 
      0.233726525385 
      0.144436824926 
      0.144490703678 
      0.144557751743 
      0.198448516357 
      0.198310062228 
      0.234488131861 
     -0.000310398609 
     -0.000167350635 
     -0.000325980599 
      0.075630005352 
      0.075576887053 
      0.145632715207 
      0.000338701287 
     -0.075604169923 
     -0.145695881216 
      0.000176094817 
     -0.075622767583 
      0.000308780837 
     -0.144508730842 
     -0.198328557278 
     -0.234567934110 
     -0.144510390923 
     -0.198378803969 
     -0.144376887001 
     -0.233872120121 
     -0.245026324178 
     -0.233803536899 
     -0.233813126052 
     -0.245071438182 
     -0.233741792026 
     -0.233757394391 
     -0.198113487579 
     -0.143866711297 
     -0.233666657873 
     -0.198138979297 
     -0.233684801068 
     -0.144470670681 
     -0.075729505956 
      0.000809071636 
     -0.144383582086 
     -0.075728834651 
     -0.144480418339 
     -0.000177727564 
      0.075452173219 
      0.145198428967 
     -0.000152790422 
      0.075495289848 
     -0.000292203405 
      0.144147702575 
      0.197939794097 
      0.234320886435 
      0.144136698863 
      0.197995352584 
      0.143985898225 
      0.233633236384 
      0.245024904469 
      0.234042569583 
      0.233546989430 
      0.245076349211 
      0.233493624517 
      0.234003472133 
      0.198502438806 
      0.144217438677 
      0.233876736821 
      0.198531671123 
      0.233936649830 
      0.144890153769 
      0.075905029055 
     -0.000941072958 
      0.144754060706 
      0.075888847315 
      0.144919258576 
     -0.144931542078 
     -0.144760188499 
     -0.144897376659 
     -0.075894761767 
     -0.075914607951 
      0.000953944552 
     -0.233953840267 
     -0.233877847126 
     -0.234022394697 
     -0.198533172681 
     -0.198514067672 
     -0.144179245141 
     -0.233509727883 
     -0.233544972272 
     -0.233656782181 
     -0.245077697986 
     -0.245028796853 
     -0.233995824405 
     -0.143997071023 
     -0.144133656405 
     -0.144170353212 
     -0.197997511554 
     -0.197933476707 
     -0.234282243068 
      0.000286609974 
      0.000155720725 
      0.000173524807 
     -0.075497496828 
     -0.075437375059 
     -0.145186897819 
      0.144479327405 
      0.144384395103 
      0.144475119608 
      0.075728984240 
      0.075745135920 
     -0.000813970853 
      0.233698807850 
      0.233663494560 
      0.233772448800 
      0.198141301915 
      0.198125885185 
      0.143849584669 
      0.233761533166 
      0.233807655010 
      0.233892078179 
      0.245076284574 
      0.245027136390 
      0.233775703990 
      0.144396192410 
      0.144502014354 
      0.144523411225 
      0.198382023003 
      0.198316575355 
      0.234538680695 
     -0.000305720885 
     -0.000178168774 
     -0.000332094104 
      0.075622015725 
      0.075572595567 
      0.145670841149 
      0.000332094104 
     -0.075572595567 
     -0.145670841149 
      0.000178168774 
     -0.075622015725 
      0.000305720885 
     -0.144523411225 
     -0.198316575355 
     -0.234538680695 
     -0.144502014354 
     -0.198382023003 
     -0.144396192410 
     -0.233892078179 
     -0.245027136390 
     -0.233775703990 
     -0.233807655010 
     -0.245076284574 
     -0.233761533166 
     -0.233772448800 
     -0.198125885185 
     -0.143849584669 
     -0.233663494560 
     -0.198141301915 
     -0.233698807850 
     -0.144475119608 
     -0.075745135920 
      0.000813970853 
     -0.144384395103 
     -0.075728984240 
     -0.144479327405 
     -0.000173524807 
      0.075437375059 
      0.145186897819 
     -0.000155720725 
      0.075497496828 
     -0.000286609974 
      0.144170353212 
      0.197933476707 
      0.234282243068 
      0.144133656405 
      0.197997511554 
      0.143997071023 
      0.233656782181 
      0.245028796853 
      0.233995824405 
      0.233544972272 
      0.245077697986 
      0.233509727883 
      0.234022394697 
      0.198514067672 
      0.144179245141 
      0.233877847126 
      0.198533172681 
      0.233953840267 
      0.144897376659 
      0.075914607951 
     -0.000953944552 
      0.144760188499 
      0.075894761767 
      0.144931542078 
     -0.144919258576 
     -0.144754060706 
     -0.144890153769 
     -0.075888847315 
     -0.075905029055 
      0.000941072958 
     -0.233936649830 
     -0.233876736821 
     -0.234003472133 
     -0.198531671123 
     -0.198502438806 
     -0.144217438677 
     -0.233493624517 
     -0.233546989430 
     -0.233633236384 
     -0.245076349211 
     -0.245024904469 
     -0.234042569583 
     -0.143985898225 
     -0.144136698863 
     -0.144147702575 
     -0.197995352584 
     -0.197939794097 
     -0.234320886435 
      0.000292203405 
      0.000152790422 
      0.000177727564 
     -0.075495289848 
     -0.075452173219 
     -0.145198428967 
      0.144480418339 
      0.144383582086 
      0.144470670681 
      0.075728834651 
      0.075729505956 
     -0.000809071636 
      0.233684801067 
      0.233666657873 
      0.233757394391 
      0.198138979297 
      0.198113487579 
      0.143866711297 
      0.233741792026 
      0.233813126052 
      0.233872120121 
      0.245071438182 
      0.245026324178 
      0.233803536899 
      0.144376887001 
      0.144510390923 
      0.144508730842 
      0.198378803969 
      0.198328557278 
      0.234567934110 
     -0.000308780837 
     -0.000176094817 
     -0.000338701287 
      0.075622767583 
      0.075604169923 
      0.145695881216 
      0.000325980599 
     -0.075576887053 
     -0.145632715207 
      0.000167350635 
     -0.075630005352 
      0.000310398609 
     -0.144557751743 
     -0.198310062228 
     -0.234488131861 
     -0.144490703678 
     -0.198448516357 
     -0.144436824926 
     -0.233954565356 
     -0.245023749911 
     -0.233726525385 
     -0.233761549904 
     -0.245195813822 
     -0.233898465796 
     -0.233835942480 
     -0.198129383822 
     -0.143815606718 
     -0.233602451993 
     -0.198272590975 
     -0.233882894876 
     -0.144513881556 
     -0.075755202494 
      0.000813060352 
     -0.144339551425 
     -0.075810713872 
     -0.144633572052 
     -0.000188170184 
      0.075427051923 
      0.145165502600 
     -0.000125224797 
      0.075474333431 
     -0.000338331464 
      0.144174069892 
      0.197927477567 
      0.234236765496 
      0.144133189756 
      0.198046239175 
      0.144022163701 
      0.233678703157 
      0.245037129059 
      0.233938500479 
      0.233505329040 
      0.245180332787 
      0.233612085701 
      0.234057159280 
      0.198531924184 
      0.144138814005 
      0.233816738173 
      0.198656781431 
      0.234098561053 
      0.144940841040 
      0.075946015389 
     -0.000969869809 
      0.144701402806 
      0.076014981957 
      0.145075423236 
     -0.144888731727 
     -0.144696932595 
     -0.144670367340 
     -0.075852476905 