# vtk DataFile Version 2.0
NDG-FEM NonhydrostaticStandingWave2d Simulation
ASCII
DATASET UNSTRUCTURED_GRID

POINTS 1800 double
0.00000000000000000000  0.00000000000000000000  0.00000000000000000000
1.00000000000000000000  0.00000000000000000000  0.00000000000000000000
2.00000000000000000000  0.00000000000000000000  0.00000000000000000000
0.00000000000000000000  1.00000000000000000000  0.00000000000000000000
1.00000000000000000000  1.00000000000000000000  0.00000000000000000000
0.00000000000000000000  2.00000000000000000000  0.00000000000000000000
2.00000000000000000000  0.00000000000000000000  0.00000000000000000000
3.00000000000000000000  0.00000000000000000000  0.00000000000000000000
4.00000000000000000000  0.00000000000000000000  0.00000000000000000000
2.00000000000000000000  1.00000000000000000000  0.00000000000000000000
3.00000000000000000000  1.00000000000000000000  0.00000000000000000000
2.00000000000000000000  2.00000000000000000000  0.00000000000000000000
4.00000000000000000000  0.00000000000000000000  0.00000000000000000000
5.00000000000000000000  0.00000000000000000000  0.00000000000000000000
6.00000000000000000000  0.00000000000000000000  0.00000000000000000000
4.00000000000000000000  1.00000000000000000000  0.00000000000000000000
5.00000000000000000000  1.00000000000000000000  0.00000000000000000000
4.00000000000000000000  2.00000000000000000000  0.00000000000000000000
6.00000000000000000000  0.00000000000000000000  0.00000000000000000000
7.00000000000000000000  0.00000000000000000000  0.00000000000000000000
8.00000000000000000000  0.00000000000000000000  0.00000000000000000000
6.00000000000000000000  1.00000000000000000000  0.00000000000000000000
7.00000000000000000000  1.00000000000000000000  0.00000000000000000000
6.00000000000000000000  2.00000000000000000000  0.00000000000000000000
8.00000000000000000000  0.00000000000000000000  0.00000000000000000000
9.00000000000000000000  0.00000000000000000000  0.00000000000000000000
10.00000000000000000000  0.00000000000000000000  0.00000000000000000000
8.00000000000000000000  1.00000000000000000000  0.00000000000000000000
9.00000000000000000000  1.00000000000000000000  0.00000000000000000000
8.00000000000000000000  2.00000000000000000000  0.00000000000000000000
10.00000000000000000000  0.00000000000000000000  0.00000000000000000000
11.00000000000000000000  0.00000000000000000000  0.00000000000000000000
12.00000000000000000000  0.00000000000000000000  0.00000000000000000000
10.00000000000000000000  1.00000000000000000000  0.00000000000000000000
11.00000000000000000000  1.00000000000000000000  0.00000000000000000000
10.00000000000000000000  2.00000000000000000000  0.00000000000000000000
12.00000000000000000000  0.00000000000000000000  0.00000000000000000000
13.00000000000000000000  0.00000000000000000000  0.00000000000000000000
14.00000000000000000000  0.00000000000000000000  0.00000000000000000000
12.00000000000000000000  1.00000000000000000000  0.00000000000000000000
13.00000000000000000000  1.00000000000000000000  0.00000000000000000000
12.00000000000000000000  2.00000000000000000000  0.00000000000000000000
14.00000000000000000000  0.00000000000000000000  0.00000000000000000000
15.00000000000000000000  0.00000000000000000000  0.00000000000000000000
16.00000000000000000000  0.00000000000000000000  0.00000000000000000000
14.00000000000000000000  1.00000000000000000000  0.00000000000000000000
15.00000000000000000000  1.00000000000000000000  0.00000000000000000000
14.00000000000000000000  2.00000000000000000000  0.00000000000000000000
16.00000000000000000000  0.00000000000000000000  0.00000000000000000000
17.00000000000000000000  0.00000000000000000000  0.00000000000000000000
18.00000000000000000000  0.00000000000000000000  0.00000000000000000000
16.00000000000000000000  1.00000000000000000000  0.00000000000000000000
17.00000000000000000000  1.00000000000000000000  0.00000000000000000000
16.00000000000000000000  2.00000000000000000000  0.00000000000000000000
18.00000000000000000000  0.00000000000000000000  0.00000000000000000000
19.00000000000000000000  0.00000000000000000000  0.00000000000000000000
20.00000000000000000000  0.00000000000000000000  0.00000000000000000000
18.00000000000000000000  1.00000000000000000000  0.00000000000000000000
19.00000000000000000000  1.00000000000000000000  0.00000000000000000000
18.00000000000000000000  2.00000000000000000000  0.00000000000000000000
20.00000000000000000000  0.00000000000000000000  0.00000000000000000000
21.00000000000000000000  0.00000000000000000000  0.00000000000000000000
22.00000000000000000000  0.00000000000000000000  0.00000000000000000000
20.00000000000000000000  1.00000000000000000000  0.00000000000000000000
21.00000000000000000000  1.00000000000000000000  0.00000000000000000000
20.00000000000000000000  2.00000000000000000000  0.00000000000000000000
22.00000000000000000000  0.00000000000000000000  0.00000000000000000000
23.00000000000000000000  0.00000000000000000000  0.00000000000000000000
24.00000000000000000000  0.00000000000000000000  0.00000000000000000000
22.00000000000000000000  1.00000000000000000000  0.00000000000000000000
23.00000000000000000000  1.00000000000000000000  0.00000000000000000000
22.00000000000000000000  2.00000000000000000000  0.00000000000000000000
24.00000000000000000000  0.00000000000000000000  0.00000000000000000000
25.00000000000000000000  0.00000000000000000000  0.00000000000000000000
26.00000000000000000000  0.00000000000000000000  0.00000000000000000000
24.00000000000000000000  1.00000000000000000000  0.00000000000000000000
25.00000000000000000000  1.00000000000000000000  0.00000000000000000000
24.00000000000000000000  2.00000000000000000000  0.00000000000000000000
26.00000000000000000000  0.00000000000000000000  0.00000000000000000000
27.00000000000000000000  0.00000000000000000000  0.00000000000000000000
28.00000000000000000000  0.00000000000000000000  0.00000000000000000000
26.00000000000000000000  1.00000000000000000000  0.00000000000000000000
27.00000000000000000000  1.00000000000000000000  0.00000000000000000000
26.00000000000000000000  2.00000000000000000000  0.00000000000000000000
28.00000000000000000000  0.00000000000000000000  0.00000000000000000000
29.00000000000000000000  0.00000000000000000000  0.00000000000000000000
30.00000000000000000000  0.00000000000000000000  0.00000000000000000000
28.00000000000000000000  1.00000000000000000000  0.00000000000000000000
29.00000000000000000000  1.00000000000000000000  0.00000000000000000000
28.00000000000000000000  2.00000000000000000000  0.00000000000000000000
30.00000000000000000000  0.00000000000000000000  0.00000000000000000000
31.00000000000000000000  0.00000000000000000000  0.00000000000000000000
32.00000000000000000000  0.00000000000000000000  0.00000000000000000000
30.00000000000000000000  1.00000000000000000000  0.00000000000000000000
31.00000000000000000000  1.00000000000000000000  0.00000000000000000000
30.00000000000000000000  2.00000000000000000000  0.00000000000000000000
32.00000000000000000000  0.00000000000000000000  0.00000000000000000000
33.00000000000000000000  0.00000000000000000000  0.00000000000000000000
34.00000000000000000000  0.00000000000000000000  0.00000000000000000000
32.00000000000000000000  1.00000000000000000000  0.00000000000000000000
33.00000000000000000000  1.00000000000000000000  0.00000000000000000000
32.00000000000000000000  2.00000000000000000000  0.00000000000000000000
34.00000000000000000000  0.00000000000000000000  0.00000000000000000000
35.00000000000000000000  0.00000000000000000000  0.00000000000000000000
36.00000000000000000000  0.00000000000000000000  0.00000000000000000000
34.00000000000000000000  1.00000000000000000000  0.00000000000000000000
35.00000000000000000000  1.00000000000000000000  0.00000000000000000000
34.00000000000000000000  2.00000000000000000000  0.00000000000000000000
36.00000000000000000000  0.00000000000000000000  0.00000000000000000000
37.00000000000000000000  0.00000000000000000000  0.00000000000000000000
38.00000000000000000000  0.00000000000000000000  0.00000000000000000000
36.00000000000000000000  1.00000000000000000000  0.00000000000000000000
37.00000000000000000000  1.00000000000000000000  0.00000000000000000000
36.00000000000000000000  2.00000000000000000000  0.00000000000000000000
38.00000000000000000000  0.00000000000000000000  0.00000000000000000000
39.00000000000000000000  0.00000000000000000000  0.00000000000000000000
40.00000000000000000000  0.00000000000000000000  0.00000000000000000000
38.00000000000000000000  1.00000000000000000000  0.00000000000000000000
39.00000000000000000000  1.00000000000000000000  0.00000000000000000000
38.00000000000000000000  2.00000000000000000000  0.00000000000000000000
40.00000000000000000000  0.00000000000000000000  0.00000000000000000000
41.00000000000000000000  0.00000000000000000000  0.00000000000000000000
42.00000000000000000000  0.00000000000000000000  0.00000000000000000000
40.00000000000000000000  1.00000000000000000000  0.00000000000000000000
41.00000000000000000000  1.00000000000000000000  0.00000000000000000000
40.00000000000000000000  2.00000000000000000000  0.00000000000000000000
42.00000000000000000000  0.00000000000000000000  0.00000000000000000000
43.00000000000000000000  0.00000000000000000000  0.00000000000000000000
44.00000000000000000000  0.00000000000000000000  0.00000000000000000000
42.00000000000000000000  1.00000000000000000000  0.00000000000000000000
43.00000000000000000000  1.00000000000000000000  0.00000000000000000000
42.00000000000000000000  2.00000000000000000000  0.00000000000000000000
44.00000000000000000000  0.00000000000000000000  0.00000000000000000000
45.00000000000000000000  0.00000000000000000000  0.00000000000000000000
46.00000000000000000000  0.00000000000000000000  0.00000000000000000000
44.00000000000000000000  1.00000000000000000000  0.00000000000000000000
45.00000000000000000000  1.00000000000000000000  0.00000000000000000000
[...]
POINT_DATA 1800
SCALARS  H  double
LOOKUP_TABLE default
      7.703851611535 
      7.699139905105 
      7.685692330282 
      7.703860986510 
      7.699140128555 
      7.703865715915 
      7.685850260949 
      7.665028940753 
      7.638907120460 
      7.685871330827 
      7.665025606095 
      7.685883757055 
      7.639311070131 
      7.610968542699 
      7.582728638058 
      7.639299019435 
      7.610958950604 
      7.639330879908 
      7.583176479263 
      7.558380787130 
      7.538610277927 
      7.583136134307 
      7.558365239369 
      7.583170600437 
      7.538956895872 
      7.526632980349 
      7.522161259512 
      7.538900194777 
      7.526616396830 
      7.538925371819 
      7.522328142265 
      7.526609889985 
      7.538915934895 
      7.522273151179 
      7.526599177518 
      7.522283038212 
      7.538852177904 
      7.558316973362 
      7.583292384895 
      7.538819634378 
      7.558318079460 
      7.538809752172 
      7.582975575538 
      7.610880224942 
      7.639560289048 
      7.582982339199 
      7.610894125618 
      7.582954130469 
      7.639065131026 
      7.664947369606 
      7.686131503150 
      7.639112332274 
      7.664966724202 
      7.639074851156 
      7.685670062952 
      7.699099003368 
      7.704002427195 
      7.685736969830 
      7.699114354772 
      7.685706569173 
      7.703812804110 
      7.699132942753 
      7.685682504810 
      7.703868362192 
      7.699139763209 
      7.703859486732 
      7.685846833478 
      7.665030362712 
      7.638910218132 
      7.685870048001 
      7.665028486556 
      7.685885532940 
      7.639312463633 
      7.610970347194 
      7.582731530648 
      7.639299503595 
      7.610960678683 
      7.639330142262 
      7.583178848867 
      7.558379495088 
      7.538610644366 
      7.583137223457 
      7.558363986847 
      7.583170019407 
      7.538957524160 
      7.526631778514 
      7.522161219388 
      7.538900551719 
      7.526615005385 
      7.538925283046 
      7.522328457550 
      7.526610335207 
      7.538915608080 
      7.522273704332 
      7.526599321343 
      7.522283451224 
      7.538851909279 
      7.558316968287 
      7.583292431127 
      7.538819568406 
      7.558318096756 
      7.538809981393 
      7.582975622333 
      7.610880223135 
      7.639560258180 
      7.582982370607 
      7.610894128293 
      7.582954162804 
      7.639065124327 
      7.664947377656 
      7.686131490691 
      7.639112330044 
      7.664966729687 
      7.639074845861 
      7.685670055788 
      7.699099004722 
      7.704002426036 
      7.685736966270 
      7.699114356247 
      7.685706567841 
      7.703812802878 
      7.699132942795 
      7.685682504821 
      7.703868361445 
      7.699139763426 
      7.703859486527 
      7.685846833367 
      7.665030362706 
      7.638910218138 
      7.685870047904 
      7.665028486582 
      7.685885532896 
      7.639312463624 
      7.610970347193 
      7.582731530647 
      7.639299503584 
      7.610960678686 
      7.639330142254 
      7.583178848866 
      7.558379495088 
      7.538610644366 
      7.583137223456 
      7.558363986847 
      7.583170019406 
      7.538957524160 
      7.526631778514 
      7.522161219388 
      7.538900551719 
      7.526615005385 
      7.538925283046 
      7.522328457550 
      7.526610335207 
      7.538915608080 
      7.522273704332 
      7.526599321343 
      7.522283451224 
      7.538851909279 
      7.558316968287 
      7.583292431127 
      7.538819568406 
      7.558318096756 
      7.538809981393 
      7.582975622333 
      7.610880223135 
      7.639560258180 
      7.582982370607 
      7.610894128293 
      7.582954162804 
      7.639065124327 
      7.664947377656 
      7.686131490691 
      7.639112330044 
      7.664966729687 
      7.639074845861 
      7.685670055788 
      7.699099004722 
      7.704002426036 
      7.685736966270 
      7.699114356247 
      7.685706567841 
      7.703812802878 
      7.699132942795 
      7.685682504821 
      7.703868361445 
      7.699139763426 
      7.703859486527 
      7.685846833367 
      7.665030362706 
      7.638910218138 
      7.685870047904 
      7.665028486582 
      7.685885532896 
      7.639312463624 
      7.610970347193 
      7.582731530647 
      7.639299503584 
      7.610960678686 
      7.639330142254 
      7.583178848866 
      7.558379495088 
      7.538610644366 
      7.583137223456 
      7.558363986847 
      7.583170019406 
      7.538957524160 
      7.526631778514 
      7.522161219388 
      7.538900551719 
      7.526615005385 
      7.538925283046 
      7.522328457550 
      7.526610335207 
      7.538915608080 
      7.522273704332 
      7.526599321343 
      7.522283451224 
      7.538851909279 
      7.558316968287 
      7.583292431127 
      7.538819568406 
      7.558318096756 
      7.538809981393 
      7.582975622333 
      7.610880223135 
      7.639560258178 
      7.582982370607 
      7.610894128294 
      7.582954162804 
      7.639065124324 
      7.664947377659 
      7.686131490678 
      7.639112330043 
      7.664966729690 
      7.639074845868 
      7.685670055771 
      7.699099004740 
      7.704002425920 
      7.685736966271 
      7.699114356261 
      7.685706567904 
      7.703812802815 
      7.699132942895 
      7.685682503777 
      7.703868361458 
      7.699139763540 
      7.703859486957 
      7.685846833019 
      7.665030363546 
      7.638910210058 
      7.685870047703 
      7.665028487679 
      7.685885534700 
      7.639312458516 
      7.610970355374 
      7.582731494485 
      7.639299498767 
      7.610960689998 
      7.639330142453 
      7.583178802707 
      7.558379534631 
      7.538610674014 
      7.583137176332 
      7.558364064756 
      7.583169955334 
      7.538957382115 
      7.526631719814 
      7.522162195940 
      7.538900368543 
      7.526615060141 
      7.538924929057 
      7.522328777399 
      7.526609533427 
      7.538914782095 
      7.522274084525 
      7.526598184288 
      7.522283728309 
      7.538850980159 
      7.558316267645 
      7.583294082930 
      7.538819206495 
      7.558318273336 
      7.538811587347 
      7.582978506695 
      7.610882732972 
      7.639561344555 
      7.582982763159 
      7.610896155862 
      7.582954103802 
      7.639067617367 
      7.664949000836 
      7.686129535453 
      7.639114749904 
      7.664968804983 
      7.639074460296 
      7.685659640572 
      7.699098715098 
      7.703966901682 
      7.685731287371 
      7.699120598812 
      7.685694851350 
      7.685715931984 
      7.685727161030 
      7.685715632281 
      7.699116880515 
      7.699110534817 
      7.703979991635 
      7.639079523467 
      7.639102038376 
      7.639094050819 
      7.664968354159 
      7.664963614505 
      7.686112809466 
      7.582950926472 
      7.582971471104 
      7.582973800947 
      7.610893889503 
      7.610898172967 
      7.639558728237 
      7.538803300026 
      7.538811989715 
      7.538822216658 
      7.558318296933 
      7.558330378416 
      7.583306876196 
      7.522274835715 
      7.522271268541 
      7.522284660215 
      7.526598971319 
      7.526615187414 
      7.538940261937 
      7.538917253467 
      7.538905380039 
      7.538916369244 
      7.526613094380 
      7.526626565841 
      7.522187405230 
      7.583163312591 
      7.583147362808 
      7.583154021591 
      7.558361386561 
      7.558364637760 
      7.538629379921 
      7.639326909257 
      7.639310593805 
      7.639312614138 
      7.610957071208 
      7.610949381609 
      7.582734627118 
      7.685888818190 
      7.685876992324 
      7.685872930568 
      7.665026121144 
      7.665011997487 
      7.638895878941 
      7.703870052071 
      7.703868739094 
      7.703856878395 
      7.699141320593 
      7.699126695012 
      7.685657171751 
      7.685719428618 
      7.685731890023 
      7.685716065973 
      7.699119160854 
      7.699107846376 
      7.703976435856 
      7.639082560925 
      7.639104064455 
      7.639093124388 
      7.664971335914 
      7.664966146840 
      7.686113983592 
      7.582953541827 
      7.582973069099 
      7.582973171005 
      7.610895855868 
      7.610899929731 
      7.639557158427 
      7.538803348481 
      7.538812209441 
      7.538822189804 
      7.558317135694 
      7.558330498807 
      7.583304876559 
      7.522274692806 
      7.522271565480 
      7.522285256099 
      7.526597502867 
      7.526614709404 
      7.538939362068 
      7.538916982937 
      7.538905290467 
      7.538916646903 
      7.526613198187 
      7.526626351068 
      7.522187783401 
      7.583163362398 
      7.583147373460 
      7.583154015934 
      7.558361412856 
      7.558364596283 
      7.538629650171 
      7.639326892603 
      7.639310585371 
      7.639312601611 
      7.610957066345 
      7.610949387603 
      7.582734688760 
      7.685888810017 
      7.685876988415 
      7.685872929061 
      7.665026123687 
      7.665011998435 
      7.638895881099 
      7.703870051196 
      7.703868738397 
      7.703856878216 
      7.699141321726 
      7.699126695059 
      7.685657171517 
      7.685719428608 
      7.685731889934 
      7.685716065925 
      7.699119161054 
      7.699107846404 
      7.703976435830 
      7.639082560929 
      7.639104064445 
      7.639093124379 
      7.664971335938 
      7.664966146847 
      7.686113983580 
      7.582953541826 
      7.582973069097 
      7.582973171004 
      7.610895855871 
      7.610899929731 
      7.639557158424 
      7.538803348481 
      7.538812209441 
      7.538822189804 
      7.558317135694 
      7.558330498807 
      7.583304876558 
      7.522274692806 
      7.522271565480 
      7.522285256099 
      7.526597502867 
      7.526614709404 
      7.538939362068 
      7.538916982937 
      7.538905290467 
      7.538916646903 
      7.526613198187 
      7.526626351068 
      7.522187783401 
      7.583163362398 
      7.583147373460 
      7.583154015934 
      7.558361412856 
      7.558364596283 
      7.538629650171 
      7.639326892603 
      7.639310585371 
      7.639312601611 
      7.610957066345 
      7.610949387603 
      7.582734688760 
      7.685888810017 
      7.685876988415 
      7.685872929061 
      7.665026123687 
      7.665011998435 
      7.638895881099 
      7.703870051196 
      7.703868738397 
      7.703856878216 
      7.699141321726 
      7.699126695059 
      7.685657171517 
      7.685719428608 
      7.685731889934 
      7.685716065925 
      7.699119161054 
      7.699107846404 
      7.703976435830 
      7.639082560929 
      7.639104064445 
      7.639093124379 
      7.664971335938 
      7.664966146847 
      7.686113983580 
      7.582953541826 
      7.582973069097 
      7.582973171004 
      7.610895855871 
      7.610899929731 
      7.639557158424 
      7.538803348480 
      7.538812209441 
      7.538822189803 
      7.558317135694 
      7.558330498807 
      7.583304876558 
      7.522274692806 
      7.522271565480 
      7.522285256099 
      7.526597502867 
      7.526614709404 
      7.538939362068 
      7.538916982937 
      7.538905290467 
      7.538916646903 
      7.526613198187 
      7.526626351068 
      7.522187783401 
      7.583163362398 
      7.583147373460 
      7.583154015934 
      7.558361412856 
      7.558364596283 
      7.538629650171 
      7.639326892601 
      7.639310585370 
      7.639312601614 
      7.610957066345 
      7.610949387602 
      7.582734688761 
      7.685888810002 
      7.685876988408 
      7.685872929087 
      7.665026123687 
      7.665011998428 
      7.638895881109 
      7.703870051097 
      7.703868738338 
      7.703856878341 
      7.699141321715 
      7.699126694986 
      7.685657171619 
      7.685719427777 
      7.685731889190 
      7.685716065739 
      7.699119160998 
      7.699107845945 
      7.703976436569 
      7.639082553238 
      7.639104056280 
      7.639093115190 
      7.664971336321 
      7.664966145358 
      7.686113986992 
      7.582953493680 
      7.582973008699 
      7.582973087944 
      7.610895866615 
      7.610899935417 
      7.639557160564 
      7.538803252258 
      7.538812040492 
      7.538821944886 
      7.558317231621 
      7.558330604349 
      7.583304767798 
      7.522275323652 
      7.522272257299 
      7.522286145232 
      7.526597654897 
      7.526614947454 
      7.538938792750 
      7.538916381804 
      7.538905078504 
      7.538918092671 
      7.526612050559 
      7.526625196087 
      7.522188063270 
      7.583165503497 
      7.583147523266 
      7.583152577403 
      7.558361212067 
      7.558363824177 
      7.538631491315 
      7.639328696910 
      7.639311941673 
      7.639311000954 
      7.610959126324 
      7.610950958568 
      7.582735724665 
      7.685886976383 
      7.685877053639 
      7.685868259672 
      7.665028582528 
      7.665013349492 
      7.638895632859 
      7.703846091484 
      7.703874248324 
      7.703864232191 
      7.699140580822 
      7.699125947045 
      7.685649474449 
      7.703855164033 
      7.699130307764 
      7.685655850459 
      7.703871293247 
      7.699136612806 
      7.703858614315 
      7.685883911355 
      7.665022978361 
      7.638898238614 
      7.685877512502 
      7.665023755402 
      7.685885587450 
      7.639325757487 
      7.610963146433 
      7.582739452203 
      7.639308930832 
      7.610955450296 
      7.639329333441 
      7.583163502051 
      7.558376169767 
      7.538635901726 
      7.583145753001 
      7.558362128340 
      7.583174352784 
      7.538918072442 
      7.526630870544 
      7.522193629961 
      7.538902963495 
      7.526617102214 
      7.538933569630 
      7.522279888887 
      7.526610793157 
      7.538943523387 
      7.522269459582 
      7.526603051345 
      7.522290738649 
      7.538813517389 
      7.558319494432 
      7.583305399693 
      7.538811623204 
      7.558320607931 
      7.538813157266 
      7.582963126183 
      7.610885058845 
      7.639552739693 
      7.582974717016 
      7.610895526133 
      7.582953103120 
      7.639083937213 
      7.664952639297 
      7.686106572193 
      7.639106972439 
      7.664967854242 
      7.639070379428 
      7.685711911822 
      7.699101666438 
      7.703969978739 
      7.685735093626 
      7.699114607628 
      7.685700730135 
      7.703861276546 
      7.699131273064 
      7.685654288747 
      7.703871485845 
      7.699137305629 
      7.703853971551 
      7.685884403970 
      7.665025424250 
      7.638896834680 
      7.685878250297 
      7.665023453397 
      7.685881949948 
      7.639324823123 
      7.610965289185 
      7.582738708464 
      7.639309319402 
      7.610956443733 
      7.639330206692 
      7.583161180757 
      7.558376351109 
      7.538635644728 
      7.583143922349 
      7.558363429400 
      7.583174254903 
      7.538917133655 
      7.526630383155 
      7.522194128235 
      7.538901525396 
      7.526617592911 
      7.538932103947 
      7.522280374084 
      7.526610509591 
      7.538943952667 
      7.522269218095 
      7.526602648295 
      7.522289995405 
      7.538813883689 
      7.558319431520 
      7.583305449849 
      7.538811974869 
      7.558320466907 
      7.538813444687 
      7.582963177411 
      7.610885072193 
      7.639552713536 
      7.582974792464 
      7.610895530741 
      7.582953179915 
      7.639083930640 
      7.664952643303 
      7.686106565186 
      7.639106971890 
      7.664967859083 
      7.639070385266 
      7.685711909830 
      7.699101666945 
      7.703969977688 
      7.685735092018 
      7.699114608407 
      7.685700729704 
      7.703861276281 
      7.699131273140 
      7.685654288593 
      7.703871485557 
      7.699137305717 
      7.703853971347 
      7.685884403927 
      7.665025424263 
      7.638896834658 
      7.685878250258 
      7.665023453407 
      7.685881949914 
      7.639324823115 
      7.610965289186 
      7.582738708462 
      7.639309319398 
      7.610956443735 
      7.639330206689 
      7.583161180756 
      7.558376351109 
      7.538635644728 
      7.583143922349 
      7.558363429400 
      7.583174254903 
      7.538917133655 
      7.526630383155 
      7.522194128235 
      7.538901525396 
      7.526617592911 
      7.538932103947 
      7.522280374084 
      7.526610509591 
      7.538943952667 
      7.522269218095 
      7.526602648295 
      7.522289995405 
      7.538813883689 
      7.558319431520 
      7.583305449849 
      7.538811974869 
      7.558320466907 
      7.538813444687 
      7.582963177411 
      7.610885072193 
      7.639552713536 
      7.582974792464 
      7.610895530741 
      7.582953179915 
      7.639083930640 
      7.664952643303 
      7.686106565186 
      7.639106971890 
      7.664967859083 
      7.639070385266 
      7.685711909830 
      7.699101666945 
      7.703969977688 
      7.685735092018 
      7.699114608407 
      7.685700729704 
      7.703861276281 
      7.699131273140 
      7.685654288593 
      7.703871485557 
      7.699137305717 
      7.703853971347 
      7.685884403927 
      7.665025424263 
      7.638896834658 
      7.685878250258 
      7.665023453407 
      7.685881949914 
      7.639324823115 
      7.610965289186 
      7.582738708462 
      7.639309319398 
      7.610956443735 
      7.639330206689 
      7.583161180756 
      7.558376351109 
      7.538635644728 
      7.583143922349 
      7.558363429400 
      7.583174254903 
      7.538917133655 
      7.526630383155 
      7.522194128235 
      7.538901525396 
      7.526617592911 
      7.538932103947 
      7.522280374084 
      7.526610509591 
      7.538943952667 
      7.522269218095 
      7.526602648295 
      7.522289995405 
      7.538813883689 
      7.558319431520 
      7.583305449849 
      7.538811974869 
      7.558320466906 
      7.538813444688 
      7.582963177411 
      7.610885072193 
      7.639552713537 
      7.582974792465 
      7.610895530740 
      7.582953179917 
      7.639083930646 
      7.664952643300 
      7.686106565195 
      7.639106971895 
      7.664967859077 
      7.639070385279 
      7.685711909888 
      7.699101666906 
      7.703969977693 
      7.685735092064 
      7.699114608343 
      7.685700729783 
      7.703861276690 
      7.699131272914 
      7.685654287716 
      7.703871485914 
      7.699137305110 
      7.703853971835 
      7.685884405445 
      7.665025424065 
      7.638896822717 
      7.685878252667 
      7.665023449994 
      7.685881953305 
      7.639324821071 
      7.610965298067 
      7.582738624957 
      7.639309327221 
      7.610956446173 
      7.639330222230 
      7.583161115193 
      7.558376434678 
      7.538635488899 
      7.583143877603 
      7.558363564933 
      7.583174242678 
      7.538916815611 
      7.526630489581 
      7.522195369588 
      7.538901151515 
      7.526617893878 
      7.538931841093 
      7.522280767101 
      7.526609257492 
      7.538945234574 
      7.522269137691 
      7.526602041216 
      7.522289503995 
      7.538815479320 
      7.558318784137 
      7.583303956850 
      7.538813022990 
      7.558319000750 
      7.538813426096 
      7.582963627982 
      7.610886716661 
      7.639550366585 
      7.582976732796 
      7.610894531493 
      7.582953912490 
      7.639083060288 
      7.664954397524 
      7.686108559875 
      7.639107428246 
      7.664969074984 
      7.639071579609 
      7.685722226815 
      7.699100429986 
      7.703972815666 
      7.685739311679 
      7.699113827433 
      7.685702807326 
      7.685702807326 
      7.685739311679 
      7.685722226815 
      7.699113827433 
      7.699100429986 
      7.703972815666 