# vtk DataFile Version 2.0
NDG-FEM NonhydrostaticStandingWave2d Simulation
ASCII
DATASET UNSTRUCTURED_GRID

POINTS 1800 double
0.00000000000000000000  0.00000000000000000000  0.00000000000000000000
1.00000000000000000000  0.00000000000000000000  0.00000000000000000000
2.00000000000000000000  0.00000000000000000000  0.00000000000000000000
0.00000000000000000000  1.00000000000000000000  0.00000000000000000000
1.00000000000000000000  1.00000000000000000000  0.00000000000000000000
0.00000000000000000000  2.00000000000000000000  0.00000000000000000000
2.00000000000000000000  0.00000000000000000000  0.00000000000000000000
3.00000000000000000000  0.00000000000000000000  0.00000000000000000000
4.00000000000000000000  0.00000000000000000000  0.00000000000000000000
2.00000000000000000000  1.00000000000000000000  0.00000000000000000000
3.00000000000000000000  1.00000000000000000000  0.00000000000000000000
2.00000000000000000000  2.00000000000000000000  0.00000000000000000000
4.00000000000000000000  0.00000000000000000000  0.00000000000000000000
5.00000000000000000000  0.00000000000000000000  0.00000000000000000000
6.00000000000000000000  0.00000000000000000000  0.00000000000000000000
4.00000000000000000000  1.00000000000000000000  0.00000000000000000000
5.00000000000000000000  1.00000000000000000000  0.00000000000000000000
4.00000000000000000000  2.00000000000000000000  0.00000000000000000000
6.00000000000000000000  0.00000000000000000000  0.00000000000000000000
7.00000000000000000000  0.00000000000000000000  0.00000000000000000000
8.00000000000000000000  0.00000000000000000000  0.00000000000000000000
6.00000000000000000000  1.00000000000000000000  0.00000000000000000000
7.00000000000000000000  1.00000000000000000000  0.00000000000000000000
6.00000000000000000000  2.00000000000000000000  0.00000000000000000000
8.00000000000000000000  0.00000000000000000000  0.00000000000000000000
9.00000000000000000000  0.00000000000000000000  0.00000000000000000000
10.00000000000000000000  0.00000000000000000000  0.00000000000000000000
8.00000000000000000000  1.00000000000000000000  0.00000000000000000000
9.00000000000000000000  1.00000000000000000000  0.00000000000000000000
8.00000000000000000000  2.00000000000000000000  0.00000000000000000000
10.00000000000000000000  0.00000000000000000000  0.00000000000000000000
11.00000000000000000000  0.00000000000000000000  0.00000000000000000000
12.00000000000000000000  0.00000000000000000000  0.00000000000000000000
10.00000000000000000000  1.00000000000000000000  0.00000000000000000000
11.00000000000000000000  1.00000000000000000000  0.00000000000000000000
10.00000000000000000000  2.00000000000000000000  0.00000000000000000000
12.00000000000000000000  0.00000000000000000000  0.00000000000000000000
13.00000000000000000000  0.00000000000000000000  0.00000000000000000000
14.00000000000000000000  0.00000000000000000000  0.00000000000000000000
12.00000000000000000000  1.00000000000000000000  0.00000000000000000000
13.00000000000000000000  1.00000000000000000000  0.00000000000000000000
12.00000000000000000000  2.00000000000000000000  0.00000000000000000000
14.00000000000000000000  0.00000000000000000000  0.00000000000000000000
15.00000000000000000000  0.00000000000000000000  0.00000000000000000000
16.00000000000000000000  0.00000000000000000000  0.00000000000000000000
14.00000000000000000000  1.00000000000000000000  0.00000000000000000000
15.00000000000000000000  1.00000000000000000000  0.00000000000000000000
14.00000000000000000000  2.00000000000000000000  0.00000000000000000000
16.00000000000000000000  0.00000000000000000000  0.00000000000000000000
17.00000000000000000000  0.00000000000000000000  0.00000000000000000000
18.00000000000000000000  0.00000000000000000000  0.00000000000000000000
16.00000000000000000000  1.00000000000000000000  0.00000000000000000000
17.00000000000000000000  1.00000000000000000000  0.00000000000000000000
16.00000000000000000000  2.00000000000000000000  0.00000000000000000000
18.00000000000000000000  0.00000000000000000000  0.00000000000000000000
19.00000000000000000000  0.00000000000000000000  0.00000000000000000000
20.00000000000000000000  0.00000000000000000000  0.00000000000000000000
18.00000000000000000000  1.00000000000000000000  0.00000000000000000000
19.00000000000000000000  1.00000000000000000000  0.00000000000000000000
18.00000000000000000000  2.00000000000000000000  0.00000000000000000000
20.00000000000000000000  0.00000000000000000000  0.00000000000000000000
21.00000000000000000000  0.00000000000000000000  0.00000000000000000000
22.00000000000000000000  0.00000000000000000000  0.00000000000000000000
20.00000000000000000000  1.00000000000000000000  0.00000000000000000000
21.00000000000000000000  1.00000000000000000000  0.00000000000000000000
20.00000000000000000000  2.00000000000000000000  0.00000000000000000000
22.00000000000000000000  0.00000000000000000000  0.00000000000000000000
23.00000000000000000000  0.00000000000000000000  0.00000000000000000000
24.00000000000000000000  0.00000000000000000000  0.00000000000000000000
22.00000000000000000000  1.00000000000000000000  0.00000000000000000000
23.00000000000000000000  1.00000000000000000000  0.00000000000000000000
22.00000000000000000000  2.00000000000000000000  0.00000000000000000000
24.00000000000000000000  0.00000000000000000000  0.00000000000000000000
25.00000000000000000000  0.00000000000000000000  0.00000000000000000000
26.00000000000000000000  0.00000000000000000000  0.00000000000000000000
24.00000000000000000000  1.00000000000000000000  0.00000000000000000000
25.00000000000000000000  1.00000000000000000000  0.00000000000000000000
24.00000000000000000000  2.00000000000000000000  0.00000000000000000000
26.00000000000000000000  0.00000000000000000000  0.00000000000000000000
27.00000000000000000000  0.00000000000000000000  0.00000000000000000000
28.00000000000000000000  0.00000000000000000000  0.00000000000000000000
26.00000000000000000000  1.00000000000000000000  0.00000000000000000000
27.00000000000000000000  1.00000000000000000000  0.00000000000000000000
26.00000000000000000000  2.00000000000000000000  0.00000000000000000000
28.00000000000000000000  0.00000000000000000000  0.00000000000000000000
29.00000000000000000000  0.00000000000000000000  0.00000000000000000000
30.00000000000000000000  0.00000000000000000000  0.00000000000000000000
28.00000000000000000000  1.00000000000000000000  0.00000000000000000000
29.00000000000000000000  1.00000000000000000000  0.00000000000000000000
28.00000000000000000000  2.00000000000000000000  0.00000000000000000000
30.00000000000000000000  0.00000000000000000000  0.00000000000000000000
31.00000000000000000000  0.00000000000000000000  0.00000000000000000000
32.00000000000000000000  0.00000000000000000000  0.00000000000000000000
30.00000000000000000000  1.00000000000000000000  0.00000000000000000000
31.00000000000000000000  1.00000000000000000000  0.00000000000000000000
30.00000000000000000000  2.00000000000000000000  0.00000000000000000000
32.00000000000000000000  0.00000000000000000000  0.00000000000000000000
33.00000000000000000000  0.00000000000000000000  0.00000000000000000000
34.00000000000000000000  0.00000000000000000000  0.00000000000000000000
32.00000000000000000000  1.00000000000000000000  0.00000000000000000000
33.00000000000000000000  1.00000000000000000000  0.00000000000000000000
32.00000000000000000000  2.00000000000000000000  0.00000000000000000000
34.00000000000000000000  0.00000000000000000000  0.00000000000000000000
35.00000000000000000000  0.00000000000000000000  0.00000000000000000000
36.00000000000000000000  0.00000000000000000000  0.00000000000000000000
34.00000000000000000000  1.00000000000000000000  0.00000000000000000000
35.00000000000000000000  1.00000000000000000000  0.00000000000000000000
34.00000000000000000000  2.00000000000000000000  0.00000000000000000000
36.00000000000000000000  0.00000000000000000000  0.00000000000000000000
37.00000000000000000000  0.00000000000000000000  0.00000000000000000000
38.00000000000000000000  0.00000000000000000000  0.00000000000000000000
36.00000000000000000000  1.00000000000000000000  0.00000000000000000000
37.00000000000000000000  1.00000000000000000000  0.00000000000000000000
36.00000000000000000000  2.00000000000000000000  0.00000000000000000000
38.00000000000000000000  0.00000000000000000000  0.00000000000000000000
39.00000000000000000000  0.00000000000000000000  0.00000000000000000000
40.00000000000000000000  0.00000000000000000000  0.00000000000000000000
38.00000000000000000000  1.00000000000000000000  0.00000000000000000000
39.00000000000000000000  1.00000000000000000000  0.00000000000000000000
38.00000000000000000000  2.00000000000000000000  0.00000000000000000000
40.00000000000000000000  0.00000000000000000000  0.00000000000000000000
41.00000000000000000000  0.00000000000000000000  0.00000000000000000000
42.00000000000000000000  0.00000000000000000000  0.00000000000000000000
40.00000000000000000000  1.00000000000000000000  0.00000000000000000000
41.00000000000000000000  1.00000000000000000000  0.00000000000000000000
40.00000000000000000000  2.00000000000000000000  0.00000000000000000000
42.00000000000000000000  0.00000000000000000000  0.00000000000000000000
43.00000000000000000000  0.00000000000000000000  0.00000000000000000000
44.00000000000000000000  0.00000000000000000000  0.00000000000000000000
42.00000000000000000000  1.00000000000000000000  0.00000000000000000000
43.00000000000000000000  1.00000000000000000000  0.00000000000000000000
42.00000000000000000000  2.00000000000000000000  0.00000000000000000000
44.00000000000000000000  0.00000000000000000000  0.00000000000000000000
45.00000000000000000000  0.00000000000000000000  0.00000000000000000000
46.00000000000000000000  0.00000000000000000000  0.00000000000000000000
44.00000000000000000000  1.00000000000000000000  0.00000000000000000000
45.00000000000000000000  1.00000000000000000000  0.00000000000000000000
[...]
POINT_DATA 1800
SCALARS  H  double
LOOKUP_TABLE default
      7.671915393723 
      7.669296695835 
      7.661103700911 
      7.671880068311 
      7.669266738452 
      7.671911701647 
      7.661352848727 
      7.648755521888 
      7.632135521393 
      7.661294187845 
      7.648735892737 
      7.661321787591 
      7.632511801255 
      7.613752897676 
      7.594127370231 
      7.632461960077 
      7.613748496324 
      7.632495122907 
      7.594548692544 
      7.576362427759 
      7.561455088812 
      7.594519247180 
      7.576373068784 
      7.594550176852 
      7.561747815336 
      7.551931989608 
      7.548642187006 
      7.561747552935 
      7.551955226794 
      7.561761056131 
      7.548613656308 
      7.551904359062 
      7.561917515417 
      7.548647151459 
      7.551932654841 
      7.548633564537 
      7.561542583571 
      7.576301841253 
      7.594769122632 
      7.561602650023 
      7.576321754122 
      7.561567264901 
      7.594261254276 
      7.613698158016 
      7.632651837876 
      7.594321440020 
      7.613699520801 
      7.594281324185 
      7.632276397609 
      7.648723132601 
      7.661360565847 
      7.632306096029 
      7.648707505855 
      7.632279268322 
      7.661229953984 
      7.669285149939 
      7.671837952916 
      7.661217381605 
      7.669260857480 
      7.661211711673 
      7.671925404995 
      7.669293003574 
      7.661095486515 
      7.671881527038 
      7.669269112015 
      7.671895652626 
      7.661347698366 
      7.648750550581 
      7.632131957488 
      7.661292166827 
      7.648734435220 
      7.661320449165 
      7.632508529671 
      7.613750012445 
      7.594126868336 
      7.632459313197 
      7.613746335789 
      7.632494419048 
      7.594548096402 
      7.576362323805 
      7.561456403434 
      7.594518414814 
      7.576372634105 
      7.594549329934 
      7.561749231514 
      7.551933611456 
      7.548643672938 
      7.561748563291 
      7.551956403188 
      7.561761272624 
      7.548615345161 
      7.551904936228 
      7.561917066773 
      7.548648893954 
      7.551933091879 
      7.548635061177 
      7.561542299155 
      7.576301553152 
      7.594768546505 
      7.561602554889 
      7.576321443444 
      7.561567458382 
      7.594260623379 
      7.613698273402 
      7.632651950035 
      7.594320960470 
      7.613699746648 
      7.594281172611 
      7.632276498265 
      7.648723077068 
      7.661360542103 
      7.632306086132 
      7.648707474463 
      7.632279136017 
      7.661229926185 
      7.669285165106 
      7.671837967731 
      7.661217352183 
      7.669260867660 
      7.661211660846 
      7.671925402367 
      7.669292993276 
      7.661095504722 
      7.671881521999 
      7.669269103639 
      7.671895650546 
      7.661347710420 
      7.648750547917 
      7.632131959060 
      7.661292174968 
      7.648734431721 
      7.661320454320 
      7.632508532100 
      7.613750012668 
      7.594126867641 
      7.632459315431 
      7.613746335494 
      7.632494420685 
      7.594548096382 
      7.576362323955 
      7.561456403199 
      7.594518415007 
      7.576372634158 
      7.594549330174 
      7.561749231434 
      7.551933611487 
      7.548643672895 
      7.561748563278 
      7.551956403207 
      7.561761272643 
      7.548615345142 
      7.551904936232 
      7.561917066767 
      7.548648893947 
      7.551933091883 
      7.548635061178 
      7.561542299152 
      7.576301553152 
      7.594768546505 
      7.561602554887 
      7.576321443444 
      7.561567458382 
      7.594260623379 
      7.613698273402 
      7.632651950035 
      7.594320960470 
      7.613699746648 
      7.594281172611 
      7.632276498265 
      7.648723077068 
      7.661360542103 
      7.632306086132 
      7.648707474463 
      7.632279136017 
      7.661229926185 
      7.669285165106 
      7.671837967731 
      7.661217352183 
      7.669260867660 
      7.661211660846 
      7.671925402367 
      7.669292993276 
      7.661095504722 
      7.671881521999 
      7.669269103639 
      7.671895650546 
      7.661347710420 
      7.648750547917 
      7.632131959060 
      7.661292174968 
      7.648734431721 
      7.661320454320 
      7.632508532100 
      7.613750012668 
      7.594126867641 
      7.632459315431 
      7.613746335494 
      7.632494420685 
      7.594548096382 
      7.576362323955 
      7.561456403199 
      7.594518415007 
      7.576372634158 
      7.594549330174 
      7.561749231433 
      7.551933611487 
      7.548643672895 
      7.561748563278 
      7.551956403208 
      7.561761272643 
      7.548615345140 
      7.551904936234 
      7.561917066765 
      7.548648893944 
      7.551933091888 
      7.548635061176 
      7.561542299134 
      7.576301553167 
      7.594768546537 
      7.561602554867 
      7.576321443480 
      7.561567458367 
      7.594260623294 
      7.613698273439 
      7.632651950631 
      7.594320960343 
      7.613699746859 
      7.594281172490 
      7.632276498228 
      7.648723076681 
      7.661360546601 
      7.632306085586 
      7.648707475028 
      7.632279135006 
      7.661229928759 
      7.669285160631 
      7.671837982321 
      7.661217352071 
      7.669260864082 
      7.661211656018 
      7.671925418482 
      7.669292979219 
      7.661095472150 
      7.671881537902 
      7.669269070324 
      7.671895655499 
      7.661347723647 
      7.648750597684 
      7.632131602136 
      7.661292234750 
      7.648734426604 
      7.661320571858 
      7.632508274481 
      7.613750312253 
      7.594127264894 
      7.632459124546 
      7.613746780889 
      7.632494433943 
      7.594547954958 
      7.576361177069 
      7.561457102113 
      7.594518030877 
      7.576371904224 
      7.594548797389 
      7.561749962942 
      7.551933932031 
      7.548644555224 
      7.561748768566 
      7.551956509819 
      7.561760807987 
      7.548616870839 
      7.551907318349 
      7.561916907820 
      7.548650632607 
      7.551934314418 
      7.548636116360 
      7.561542403871 
      7.576301672353 
      7.594767466458 
      7.561603236825 
      7.576321252002 
      7.561568262522 
      7.594259585628 
      7.613695770736 
      7.632647836745 
      7.594319928538 
      7.613697939185 
      7.594280838216 
      7.632271981660 
      7.648719196358 
      7.661355868147 
      7.632303674604 
      7.648705618727 
      7.632278470118 
      7.661221960364 
      7.669291894523 
      7.671846054792 
      7.661210211260 
      7.669261746664 
      7.661208239165 
      7.661211787405 
      7.661186800610 
      7.661191742227 
      7.669266509090 
      7.669295040249 
      7.671887296676 
      7.632284173908 
      7.632279359573 
      7.632267602431 
      7.648709040606 
      7.648731066320 
      7.661390041020 
      7.594290669441 
      7.594309718630 
      7.594289872908 
      7.613696002975 
      7.613705482734 
      7.632659808929 
      7.561575672753 
      7.561610661884 
      7.561591037007 
      7.576313555674 
      7.576305894324 
      7.594755788212 
      7.548637173151 
      7.548670960114 
      7.548659856030 
      7.551921722441 
      7.551900114625 
      7.561889957844 
      7.561760100162 
      7.561777775165 
      7.561779189654 
      7.551945933901 
      7.551919625748 
      7.548608856262 
      7.594547670248 
      7.594544336654 
      7.594556299589 
      7.576369725578 
      7.576348594247 
      7.561425866781 
      7.632491965542 
      7.632471814809 
      7.632488784765 
      7.613753457598 
      7.613745120052 
      7.594114015784 
      7.661315657200 
      7.661286302767 
      7.661302686604 
      7.648747748225 
      7.648754919322 
      7.632145171921 
      7.671888477537 
      7.671858809852 
      7.671870368861 
      7.669280991818 
      7.669301202997 
      7.661129076389 
      7.661206321308 
      7.661185581969 
      7.661187498872 
      7.669266931549 
      7.669293465417 
      7.671876719013 
      7.632280798914 
      7.632277895977 
      7.632267331392 
      7.648706537874 
      7.648730182177 
      7.661388418235 
      7.594290097795 
      7.594309207325 
      7.594289369182 
      7.613693748017 
      7.613704481524 
      7.632658809003 
      7.561576960203 
      7.561611597841 
      7.561591461252 
      7.576313077558 
      7.576305463894 
      7.594754631665 
      7.548638604787 
      7.548672484231 
      7.548661238131 
      7.551922860529 
      7.551900833715 
      7.561889928862 
      7.561759725799 
      7.561777561137 
      7.561779360775 
      7.551946342729 
      7.551919725036 
      7.548610428739 
      7.594547170626 
      7.594543889898 
      7.594556101754 
      7.576369393717 
      7.576348118371 
      7.561426308922 
      7.632492112410 
      7.632471831857 
      7.632488590966 
      7.613753690846 
      7.613745288743 
      7.594114065529 
      7.661315630482 
      7.661286287686 
      7.661302656955 
      7.648747709482 
      7.648754961153 
      7.632145028672 
      7.671888483096 
      7.671858812774 
      7.671870377527 
      7.669281006101 
      7.669301209287 
      7.661129006256 
      7.661206333367 
      7.661185589943 
      7.661187504645 
      7.669266926782 
      7.669293463244 
      7.671876705154 
      7.632280800055 
      7.632277897548 
      7.632267332726 
      7.648706534711 
      7.648730180826 
      7.661388420668 
      7.594290097381 
      7.594309207336 
      7.594289369322 
      7.613693747584 
      7.613704481255 
      7.632658810531 
      7.561576960059 
      7.561611597798 
      7.561591461255 
      7.576313077558 
      7.576305463868 
      7.594754631983 
      7.548638604760 
      7.548672484221 
      7.548661238130 
      7.551922860538 
      7.551900833713 
      7.561889928904 
      7.561759725795 
      7.561777561136 
      7.561779360775 
      7.551946342731 
      7.551919725036 
      7.548610428743 
      7.594547170626 
      7.594543889898 
      7.594556101754 
      7.576369393717 
      7.576348118371 
      7.561426308923 
      7.632492112410 
      7.632471831857 
      7.632488590966 
      7.613753690846 
      7.613745288743 
      7.594114065529 
      7.661315630482 
      7.661286287686 
      7.661302656955 
      7.648747709482 
      7.648754961153 
      7.632145028672 
      7.671888483096 
      7.671858812774 
      7.671870377527 
      7.669281006101 
      7.669301209287 
      7.661129006256 
      7.661206333367 
      7.661185589943 
      7.661187504645 
      7.669266926782 
      7.669293463244 
      7.671876705154 
      7.632280800055 
      7.632277897548 
      7.632267332726 
      7.648706534711 
      7.648730180826 
      7.661388420668 
      7.594290097381 
      7.594309207336 
      7.594289369322 
      7.613693747584 
      7.613704481255 
      7.632658810531 
      7.561576960059 
      7.561611597797 
      7.561591461254 
      7.576313077558 
      7.576305463868 
      7.594754631983 
      7.548638604758 
      7.548672484218 
      7.548661238126 
      7.551922860539 
      7.551900833714 
      7.561889928904 
      7.561759725781 
      7.561777561115 
      7.561779360753 
      7.551946342737 
      7.551919725039 
      7.548610428739 
      7.594547170577 
      7.594543889781 
      7.594556101602 
      7.576369393762 
      7.576348118395 
      7.561426308887 
      7.632492112565 
      7.632471831461 
      7.632488590060 
      7.613753691126 
      7.613745288948 
      7.594114065263 
      7.661315633663 
      7.661286288756 
      7.661302655075 
      7.648747710436 
      7.648754962584 
      7.632145026965 
      7.671888500004 
      7.671858833518 
      7.671870399210 
      7.669281003653 
      7.669301212524 
      7.661129000172 
      7.661206339361 
      7.661185646011 
      7.661187625802 
      7.669266889718 
      7.669293433689 
      7.671876719954 
      7.632280502342 
      7.632277628326 
      7.632267149267 
      7.648706502704 
      7.648730072304 
      7.661388576026 
      7.594290108868 
      7.594308873841 
      7.594288610400 
      7.613694219092 
      7.613704800148 
      7.632658726901 
      7.561577574083 
      7.561611916547 
      7.561591392547 
      7.576312407105 
      7.576305340268 
      7.594754091248 
      7.548639957404 
      7.548674382933 
      7.548663116754 
      7.551923034030 
      7.551901218740 
      7.561889514462 
      7.561760034925 
      7.561778220806 
      7.561780444495 
      7.551947568464 
      7.551920070040 
      7.548611530668 
      7.594546158107 
      7.594542630253 
      7.594555586390 
      7.576369074954 
      7.576347472247 
      7.561427161201 
      7.632488062845 
      7.632469179464 
      7.632486952712 
      7.613751891440 
      7.613744032409 
      7.594113753656 
      7.661311020875 
      7.661284637499 
      7.661300581494 
      7.648744998799 
      7.648754542743 
      7.632143316271 
      7.671899524039 
      7.671851709114 
      7.671866873620 
      7.669277068155 
      7.669308865673 
      7.661128433745 
      7.671865801029 
      7.669308816232 
      7.661129037250 
      7.671855443668 
      7.669279020858 
      7.671901702563 
      7.661302020956 
      7.648761187628 
      7.632144964266 
      7.661279616310 
      7.648744810384 
      7.661319950430 
      7.632493008889 
      7.613753010745 
      7.594115903047 
      7.632466347829 
      7.613748586740 
      7.632494216253 
      7.594566834114 
      7.576357604383 
      7.561429561573 
      7.594540482756 
      7.576363648472 
      7.594549560206 
      7.561788314239 
      7.551924975340 
      7.548611260981 
      7.561776670618 
      7.551940767096 
      7.561762720515 
      7.548660447551 
      7.551899106254 
      7.561888758453 
      7.548672794983 
      7.551919462346 
      7.548637669605 
      7.561584664882 
      7.576298360393 
      7.594753227749 
      7.561613336979 
      7.576314010742 
      7.561568894109 
      7.594283061713 
      7.613695835312 
      7.632659151990 
      7.594313573648 
      7.613699363135 
      7.594281657489 
      7.632264544920 
      7.648724138504 
      7.661389364253 
      7.632283568012 
      7.648714084058 
      7.632278147699 
      7.661185649115 
      7.669290745524 
      7.671875984867 
      7.661188913050 
      7.669272988209 
      7.661209647808 
      7.671867516673 
      7.669301614223 
      7.661126282556 
      7.671857766365 
      7.669283339360 
      7.671893847259 
      7.661300820759 
      7.648758532722 
      7.632142707657 
      7.661281489808 
      7.648745840539 
      7.661319859578 
      7.632492195412 
      7.613752455981 
      7.594115026925 
      7.632466002002 
      7.613748920223 
      7.632494942431 
      7.594565862331 
      7.576357300812 
      7.561429939304 
      7.594539931661 
      7.576363745351 
      7.594549958142 
      7.561788418411 
      7.551925629454 
      7.548612729665 
      7.561776177866 
      7.551940926357 
      7.561761680370 
      7.548662020462 
      7.551899165932 
      7.561889001622 
      7.548672811541 
      7.551919071021 
      7.548636202628 
      7.561585156871 
      7.576297879689 
      7.594753041178 
      7.561613892388 
      7.576313615133 
      7.561569390681 
      7.594283071457 
      7.613696042312 
      7.632658946916 
      7.594314001336 
      7.613699374079 
      7.594282259027 
      7.632264323548 
      7.648724206974 
      7.661389274945 
      7.632283453732 
      7.648714237792 
      7.632278213666 
      7.661185579443 
      7.669290746866 
      7.671875996028 
      7.661188806776 
      7.669273000362 
      7.661209529498 
      7.671867513766 
      7.669301607479 
      7.661126296521 
      7.671857760265 
      7.669283331636 
      7.671893833533 
      7.661300825818 
      7.648758530744 
      7.632142710277 
      7.661281494000 
      7.648745838709 
      7.661319862358 
      7.632492197052 
      7.613752455767 
      7.594115026999 
      7.632466003135 
      7.613748920019 
      7.632494943241 
      7.594565862576 
      7.576357300819 
      7.561429939255 
      7.594539931825 
      7.576363745337 
      7.594549958259 
      7.561788418430 
      7.551925629460 
      7.548612729653 
      7.561776177884 
      7.551940926357 
      7.561761680387 
      7.548662020463 
      7.551899165933 
      7.561889001620 
      7.548672811542 
      7.551919071021 
      7.548636202631 
      7.561585156871 
      7.576297879689 
      7.594753041178 
      7.561613892388 
      7.576313615133 
      7.561569390681 
      7.594283071457 
      7.613696042312 
      7.632658946916 
      7.594314001336 
      7.613699374079 
      7.594282259027 
      7.632264323548 
      7.648724206974 
      7.661389274945 
      7.632283453732 
      7.648714237792 
      7.632278213666 
      7.661185579443 
      7.669290746866 
      7.671875996028 
      7.661188806776 
      7.669273000362 
      7.661209529498 
      7.671867513766 
      7.669301607479 
      7.661126296521 
      7.671857760265 
      7.669283331636 
      7.671893833533 
      7.661300825818 
      7.648758530744 
      7.632142710277 
      7.661281494000 
      7.648745838709 
      7.661319862358 
      7.632492197052 
      7.613752455767 
      7.594115026999 
      7.632466003135 
      7.613748920019 
      7.632494943241 
      7.594565862576 
      7.576357300819 
      7.561429939254 
      7.594539931825 
      7.576363745337 
      7.594549958259 
      7.561788418430 
      7.551925629460 
      7.548612729650 
      7.561776177884 
      7.551940926357 
      7.561761680388 
      7.548662020461 
      7.551899165935 
      7.561889001602 
      7.548672811542 
      7.551919071023 
      7.548636202637 
      7.561585156857 
      7.576297879705 
      7.594753041066 
      7.561613892382 
      7.576313615156 
      7.561569390702 
      7.594283071350 
      7.613696042428 
      7.632658946316 
      7.594314001241 
      7.613699374280 
      7.594282258933 
      7.632264322618 
      7.648724207820 
      7.661389274649 
      7.632283452813 
      7.648714239223 
      7.632278212066 
      7.661185575165 
      7.669290748307 
      7.671876020871 
      7.661188801655 
      7.669273005717 
      7.661209521774 
      7.671867522454 
      7.669301580420 
      7.661126405564 
      7.671857755083 
      7.669283316394 
      7.671893824951 
      7.661300951961 
      7.648758444187 
      7.632142480056 
      7.661281576855 
      7.648745693459 
      7.661319899794 
      7.632492181995 
      7.613752770715 
      7.594114320616 
      7.632466178461 
      7.613748934403 
      7.632495108443 
      7.594565213705 
      7.576357177511 
      7.561429777852 
      7.594539668729 
      7.576364218209 
      7.594550190517 
      7.561787999189 
      7.551925953422 
      7.548614775247 
      7.561775682599 
      7.551941316376 
      7.561761555399 
      7.548663303862 
      7.551899499101 
      7.561890230014 
      7.548672648467 
      7.551918778887 
      7.548634768926 
      7.561586017042 
      7.576297203515 
      7.594752430303 
      7.561614130504 
      7.576313374847 
      7.561569088682 
      7.594282609709 
      7.613694729249 
      7.632657593066 
      7.594314478586 
      7.613698954943 
      7.594283307148 
      7.632263356624 
      7.648724260568 
      7.661388198312 
      7.632283421329 
      7.648714007273 
      7.632279152683 
      7.661187694638 
      7.669290478385 
      7.671878735227 
      7.661189837547 
      7.669272563430 
      7.661210254766 
      7.661210254766 
      7.661189837547 
      7.661187694638 
      7.669272563430 
      7.669290478385 
      7.671878735227 