# vtk DataFile Version 2.0
NDG-FEM NonhydrostaticStandingWave2d Simulation
ASCII
DATASET UNSTRUCTURED_GRID

POINTS 405 double
0.00000000000000000000  0.00000000000000000000  0.00000000000000000000
1.00000000000000000000  0.00000000000000000000  0.00000000000000000000
2.00000000000000000000  0.00000000000000000000  0.00000000000000000000
0.00000000000000000000  1.00000000000000000000  0.00000000000000000000
1.00000000000000000000  1.00000000000000000000  0.00000000000000000000
2.00000000000000000000  1.00000000000000000000  0.00000000000000000000
0.00000000000000000000  2.00000000000000000000  0.00000000000000000000
1.00000000000000000000  2.00000000000000000000  0.00000000000000000000
2.00000000000000000000  2.00000000000000000000  0.00000000000000000000
2.00000000000000000000  0.00000000000000000000  0.00000000000000000000
3.00000000000000000000  0.00000000000000000000  0.00000000000000000000
4.00000000000000000000  0.00000000000000000000  0.00000000000000000000
2.00000000000000000000  1.00000000000000000000  0.00000000000000000000
3.00000000000000000000  1.00000000000000000000  0.00000000000000000000
4.00000000000000000000  1.00000000000000000000  0.00000000000000000000
2.00000000000000000000  2.00000000000000000000  0.00000000000000000000
3.00000000000000000000  2.00000000000000000000  0.00000000000000000000
4.00000000000000000000  2.00000000000000000000  0.00000000000000000000
4.00000000000000000000  0.00000000000000000000  0.00000000000000000000
5.00000000000000000000  0.00000000000000000000  0.00000000000000000000
6.00000000000000000000  0.00000000000000000000  0.00000000000000000000
4.00000000000000000000  1.00000000000000000000  0.00000000000000000000
5.00000000000000000000  1.00000000000000000000  0.00000000000000000000
6.00000000000000000000  1.00000000000000000000  0.00000000000000000000
4.00000000000000000000  2.00000000000000000000  0.00000000000000000000
5.00000000000000000000  2.00000000000000000000  0.00000000000000000000
6.00000000000000000000  2.00000000000000000000  0.00000000000000000000
6.00000000000000000000  0.00000000000000000000  0.00000000000000000000
7.00000000000000000000  0.00000000000000000000  0.00000000000000000000
8.00000000000000000000  0.00000000000000000000  0.00000000000000000000
6.00000000000000000000  1.00000000000000000000  0.00000000000000000000
7.00000000000000000000  1.00000000000000000000  0.00000000000000000000
8.00000000000000000000  1.00000000000000000000  0.00000000000000000000
6.00000000000000000000  2.00000000000000000000  0.00000000000000000000
7.00000000000000000000  2.00000000000000000000  0.00000000000000000000
8.00000000000000000000  2.00000000000000000000  0.00000000000000000000
8.00000000000000000000  0.00000000000000000000  0.00000000000000000000
9.00000000000000000000  0.00000000000000000000  0.00000000000000000000
10.00000000000000000000  0.00000000000000000000  0.00000000000000000000
8.00000000000000000000  1.00000000000000000000  0.00000000000000000000
9.00000000000000000000  1.00000000000000000000  0.00000000000000000000
10.00000000000000000000  1.00000000000000000000  0.00000000000000000000
8.00000000000000000000  2.00000000000000000000  0.00000000000000000000
9.00000000000000000000  2.00000000000000000000  0.00000000000000000000
10.00000000000000000000  2.00000000000000000000  0.00000000000000000000
10.00000000000000000000  0.00000000000000000000  0.00000000000000000000
11.00000000000000000000  0.00000000000000000000  0.00000000000000000000
12.00000000000000000000  0.00000000000000000000  0.00000000000000000000
10.00000000000000000000  1.00000000000000000000  0.00000000000000000000
11.00000000000000000000  1.00000000000000000000  0.00000000000000000000
12.00000000000000000000  1.00000000000000000000  0.00000000000000000000
10.00000000000000000000  2.00000000000000000000  0.00000000000000000000
11.00000000000000000000  2.00000000000000000000  0.00000000000000000000
12.00000000000000000000  2.00000000000000000000  0.00000000000000000000
12.00000000000000000000  0.00000000000000000000  0.00000000000000000000
13.00000000000000000000  0.00000000000000000000  0.00000000000000000000
14.00000000000000000000  0.00000000000000000000  0.00000000000000000000
12.00000000000000000000  1.00000000000000000000  0.00000000000000000000
13.00000000000000000000  1.00000000000000000000  0.00000000000000000000
14.00000000000000000000  1.00000000000000000000  0.00000000000000000000
12.00000000000000000000  2.00000000000000000000  0.00000000000000000000
13.00000000000000000000  2.00000000000000000000  0.00000000000000000000
14.00000000000000000000  2.00000000000000000000  0.00000000000000000000
14.00000000000000000000  0.00000000000000000000  0.00000000000000000000
15.00000000000000000000  0.00000000000000000000  0.00000000000000000000
16.00000000000000000000  0.00000000000000000000  0.00000000000000000000
14.00000000000000000000  1.00000000000000000000  0.00000000000000000000
15.00000000000000000000  1.00000000000000000000  0.00000000000000000000
16.00000000000000000000  1.00000000000000000000  0.00000000000000000000
14.00000000000000000000  2.00000000000000000000  0.00000000000000000000
15.00000000000000000000  2.00000000000000000000  0.00000000000000000000
16.00000000000000000000  2.00000000000000000000  0.00000000000000000000
16.00000000000000000000  0.00000000000000000000  0.00000000000000000000
17.00000000000000000000  0.00000000000000000000  0.00000000000000000000
18.00000000000000000000  0.00000000000000000000  0.00000000000000000000
16.00000000000000000000  1.00000000000000000000  0.00000000000000000000
17.00000000000000000000  1.00000000000000000000  0.00000000000000000000
18.00000000000000000000  1.00000000000000000000  0.00000000000000000000
16.00000000000000000000  2.00000000000000000000  0.00000000000000000000
17.00000000000000000000  2.00000000000000000000  0.00000000000000000000
18.00000000000000000000  2.00000000000000000000  0.00000000000000000000
18.00000000000000000000  0.00000000000000000000  0.00000000000000000000
19.00000000000000000000  0.00000000000000000000  0.00000000000000000000
20.00000000000000000000  0.00000000000000000000  0.00000000000000000000
18.00000000000000000000  1.00000000000000000000  0.00000000000000000000
19.00000000000000000000  1.00000000000000000000  0.00000000000000000000
20.00000000000000000000  1.00000000000000000000  0.00000000000000000000
18.00000000000000000000  2.00000000000000000000  0.00000000000000000000
19.00000000000000000000  2.00000000000000000000  0.00000000000000000000
20.00000000000000000000  2.00000000000000000000  0.00000000000000000000
20.00000000000000000000  0.00000000000000000000  0.00000000000000000000
21.00000000000000000000  0.00000000000000000000  0.00000000000000000000
22.00000000000000000000  0.00000000000000000000  0.00000000000000000000
20.00000000000000000000  1.00000000000000000000  0.00000000000000000000
21.00000000000000000000  1.00000000000000000000  0.00000000000000000000
22.00000000000000000000  1.00000000000000000000  0.00000000000000000000
20.00000000000000000000  2.00000000000000000000  0.00000000000000000000
21.00000000000000000000  2.00000000000000000000  0.00000000000000000000
22.00000000000000000000  2.00000000000000000000  0.00000000000000000000
22.00000000000000000000  0.00000000000000000000  0.00000000000000000000
23.00000000000000000000  0.00000000000000000000  0.00000000000000000000
24.00000000000000000000  0.00000000000000000000  0.00000000000000000000
22.00000000000000000000  1.00000000000000000000  0.00000000000000000000
23.00000000000000000000  1.00000000000000000000  0.00000000000000000000
24.00000000000000000000  1.00000000000000000000  0.00000000000000000000
22.00000000000000000000  2.00000000000000000000  0.00000000000000000000
23.00000000000000000000  2.00000000000000000000  0.00000000000000000000
24.00000000000000000000  2.00000000000000000000  0.00000000000000000000
24.00000000000000000000  0.00000000000000000000  0.00000000000000000000
25.00000000000000000000  0.00000000000000000000  0.00000000000000000000
26.00000000000000000000  0.00000000000000000000  0.00000000000000000000
24.00000000000000000000  1.00000000000000000000  0.00000000000000000000
25.00000000000000000000  1.00000000000000000000  0.00000000000000000000
26.00000000000000000000  1.00000000000000000000  0.00000000000000000000
24.00000000000000000000  2.00000000000000000000  0.00000000000000000000
25.00000000000000000000  2.00000000000000000000  0.00000000000000000000
26.00000000000000000000  2.00000000000000000000  0.00000000000000000000
26.00000000000000000000  0.00000000000000000000  0.00000000000000000000
27.00000000000000000000  0.00000000000000000000  0.00000000000000000000
28.00000000000000000000  0.00000000000000000000  0.00000000000000000000
26.00000000000000000000  1.00000000000000000000  0.00000000000000000000
27.00000000000000000000  1.00000000000000000000  0.00000000000000000000
28.00000000000000000000  1.00000000000000000000  0.00000000000000000000
26.00000000000000000000  2.00000000000000000000  0.00000000000000000000
27.00000000000000000000  2.00000000000000000000  0.00000000000000000000
28.00000000000000000000  2.00000000000000000000  0.00000000000000000000
28.00000000000000000000  0.00000000000000000000  0.00000000000000000000
29.00000000000000000000  0.00000000000000000000  0.00000000000000000000
30.00000000000000000000  0.00000000000000000000  0.00000000000000000000
28.00000000000000000000  1.00000000000000000000  0.00000000000000000000
29.00000000000000000000  1.00000000000000000000  0.00000000000000000000
30.00000000000000000000  1.00000000000000000000  0.00000000000000000000
28.00000000000000000000  2.00000000000000000000  0.00000000000000000000
29.00000000000000000000  2.00000000000000000000  0.00000000000000000000
30.00000000000000000000  2.00000000000000000000  0.00000000000000000000
0.00000000000000000000  2.00000000000000000000  0.00000000000000000000
1.00000000000000000000  2.00000000000000000000  0.00000000000000000000
[...]
POINT_DATA 405
SCALARS  H  double
LOOKUP_TABLE default
      7.711946191843 
      7.706996929266 
      7.692691322196 
      7.712041509643 
      7.706966111158 
      7.692671117394 
      7.711964335764 
      7.706971829554 
      7.692639919516 
      7.692982313356 
      7.670627981980 
      7.642634931586 
      7.692977337628 
      7.670639253812 
      7.642622058687 
      7.692941519613 
      7.670637869249 
      7.642641333212 
      7.643019352359 
      7.611849549760 
      7.580795598985 
      7.643014991690 
      7.611854081149 
      7.580780640667 
      7.643030922732 
      7.611846224197 
      7.580774836735 
      7.581135601819 
      7.553127446470 
      7.530924165787 
      7.581122875601 
      7.553132550287 
      7.530924201636 
      7.581111837211 
      7.553136256896 
      7.530930958015 
      7.531111296202 
      7.516994411659 
      7.512001590921 
      7.531110491111 
      7.516993375711 
      7.512001614651 
      7.531115665567 
      7.516989999892 
      7.512001942816 
      7.512000163451 
      7.516977087857 
      7.531139304528 
      7.512000283005 
      7.516977463010 
      7.531139035076 
      7.512001826134 
      7.516978333475 
      7.531138221586 
      7.530955186290 
      7.553208306799 
      7.581226283655 
      7.530954669054 
      7.553208311493 
      7.581226492900 
      7.530953601208 
      7.553208369207 
      7.581226897622 
      7.580888736058 
      7.611977589481 
      7.643139001042 
      7.580888856768 
      7.611977470312 
      7.643139080581 
      7.580889108552 
      7.611977216795 
      7.643139205156 
      7.642754193578 
      7.670777017682 
      7.693085811963 
      7.642754400403 
      7.670777010730 
      7.693085361588 
      7.642754777756 
      7.670777062183 
      7.693084395642 
      7.692825709314 
      7.707054244729 
      7.711985892505 
      7.692825593796 
      7.707054527842 
      7.711984934180 
      7.692824972194 
      7.707055304636 
      7.711984463094 
      7.711990485336 
      7.707057246062 
      7.692849280872 
      7.711989729566 
      7.707057725232 
      7.692846957588 
      7.711988369214 
      7.707057796097 
      7.692848953472 
      7.693108449876 
      7.670841484341 
      7.642852992820 
      7.693105763014 
      7.670844635751 
      7.642849082516 
      7.693104993608 
      7.670844465638 
      7.642865864115 
      7.643238915517 
      7.612103607246 
      7.581030738719 
      7.643233070401 
      7.612105430657 
      7.581011666731 
      7.643245405873 
      7.612092023091 
      7.581007373358 
      7.581367163657 
      7.553314553725 
      7.531049467824 
      7.581342902078 
      7.553323538054 
      7.531045989678 
      7.581342404705 
      7.553324266550 
      7.531106971899 
      7.531334021725 
      7.516971959667 
      7.512257149361 
      7.531289076080 
      7.517025876395 
      7.512119466451 
      7.531358697579 
      7.517024765891 
      7.512200175885 
      7.711898393125 
      7.706986396062 
      7.692637388171 
      7.711886607731 
      7.707012722660 
      7.692607327271 
      7.711962161993 
      7.706996934690 
      7.692606012231 
      7.692942234710 
      7.670637840466 
      7.642641965688 
      7.692927326961 
      7.670647270609 
      7.642624566488 
      7.692939671125 
      7.670646953264 
      7.642609418746 
      7.643025234515 
      7.611846723998 
      7.580777767767 
      7.643008741676 
      7.611849757228 
      7.580770398207 
      7.642999522619 
      7.611853103499 
      7.580769619003 
      7.581113338305 
      7.553134986045 
      7.530931688300 
      7.581100687269 
      7.553138921031 
      7.530936988339 
      7.581098882412 
      7.553141268230 
      7.530939048602 
      7.531116210706 
      7.516990104547 
      7.512001994426 
      7.531119836398 
      7.516986713947 
      7.512002511536 
      7.531121636864 
      7.516984085109 
      7.512003360089 
      7.512001801623 
      7.516978272919 
      7.531138304814 
      7.512003784916 
      7.516979047020 
      7.531137332081 
      7.512006406652 
      7.516979474007 
      7.531136181178 
      7.530953709641 
      7.553208347660 
      7.581226876220 
      7.530952634745 
      7.553208508497 
      7.581227152557 
      7.530951733551 
      7.553208843279 
      7.581227157683 
      7.580889111814 
      7.611977236400 
      7.643139189935 
      7.580889207357 
      7.611977009061 
      7.643139263820 
      7.580889069891 
      7.611976864954 
      7.643139042196 
      7.642754744011 
      7.670777060679 
      7.693084475898 
      7.642755046561 
      7.670777215569 
      7.693083403787 
      7.642755097391 
      7.670777649975 
      7.693082109809 
      7.692825022110 
      7.707055229582 
      7.711984510103 
      7.692824144500 
      7.707055898863 
      7.711986182776 
      7.692822805150 
      7.707056334800 
      7.711990176211 
      7.711988478069 
      7.707057824327 
      7.692848764050 
      7.711989047099 
      7.707055657208 
      7.692850142164 
      7.711991732369 
      7.707051708891 
      7.692849574418 
      7.693104956534 
      7.670844438276 
      7.642866057633 
      7.693107341787 
      7.670847611544 
      7.642861997783 
      7.693110379875 
      7.670854453416 
      7.642848248494 
      7.643246138673 
      7.612090669050 
      7.581007815561 
      7.643243551867 
      7.612090210841 
      7.580994731660 
      7.643232343514 
      7.612092350180 
      7.581003662953 
      7.581346460971 
      7.553326078345 
      7.531100685135 
      7.581330522951 
      7.553330965820 
      7.531094307574 
      7.581336151160 
      7.553319049272 
      7.531060417059 
      7.531370236109 
      7.517010196436 
      7.512221243822 
      7.531333881892 
      7.517022729595 
      7.512127281035 
      7.531322015894 
      7.517037585366 
      7.512112856807 
      7.711869631013 
      7.707010949543 
      7.692579754171 
      7.711830507661 
      7.707004819849 
      7.692612938256 
      7.711892444740 
      7.707025785058 
      7.692595363207 
      7.692939595853 
      7.670647805491 
      7.642611104999 
      7.692955507134 
      7.670637385580 
      7.642606352484 
      7.692935810349 
      7.670635978402 
      7.642586430303 
      7.642999207983 
      7.611851686633 
      7.580770543611 
      7.642985931951 
      7.611853413800 
      7.580782863112 
      7.642968210498 
      7.611861752356 
      7.580777012658 
      7.581099448986 
      7.553141054513 
      7.530939855708 
      7.581108727291 
      7.553140658611 
      7.530940131735 
      7.581102099036 
      7.553143074442 
      7.530938848169 
      7.531122320710 
      7.516983862814 
      7.512003382669 
      7.531122099359 
      7.516982313913 
      7.512004882301 
      7.531118620356 
      7.516981532441 
      7.512006574050 
      7.512006446308 
      7.516979538113 
      7.531136138119 
      7.512009248207 
      7.516979349733 
      7.531135421266 
      7.512010563838 
      7.516978970783 
      7.531135479490 
      7.530951665292 
      7.553208843580 
      7.581227184008 
      7.530951452182 
      7.553209161442 
      7.581226981220 
      7.530951578304 
      7.553209243506 
      7.581226923033 
      7.580889084006 
      7.611976850383 
      7.643139063362 
      7.580888853494 
      7.611976819260 
      7.643138756670 
      7.580888770136 
      7.611976817486 
      7.643138695897 
      7.642755124471 
      7.670777640103 
      7.693082061390 
      7.642755023527 
      7.670778049998 
      7.693080967902 
      7.642755012535 
      7.670778122318 
      7.693080880578 
      7.692822769973 
      7.707056411247 
      7.711990083352 
      7.692821553066 
      7.707056768453 
      7.711992630217 
      7.692821435677 
      7.707056597117 
      7.711993909239 
      7.711991630334 
      7.707051661349 
      7.692850412772 
      7.711992757517 
      7.707049603676 
      7.692848230657 
      7.711994086579 
      7.707048971019 
      7.692846984217 
      7.693111121745 
      7.670853830373 
      7.642848682163 
      7.693109843253 
      7.670859177367 
      7.642848502586 
      7.693109865981 
      7.670861158722 
      7.642848393318 
      7.643233282199 
      7.612091764398 
      7.581003970202 
      7.643230399791 
      7.612087609625 
      7.581016481413 
      7.643230062195 
      7.612088369354 
      7.581009371669 
      7.581338272716 
      7.553318606151 
      7.531064651286 
      7.581343017262 
      7.553301649385 
      7.531060959798 
      7.581332199930 
      7.553301112181 
      7.531069361512 
      7.531307793529 
      7.517049997452 
      7.512081247552 
      7.531304350189 
      7.517045297596 
      7.512050609546 
      7.531325073982 
      7.517007209654 
      7.512163359903 
SCALARS  HU  double
LOOKUP_TABLE default
     -0.000312441419 
      0.004906317907 
      0.010367909796 
      0.000557249574 
      0.004991578565 
      0.009764167154 
      0.000392986774 
      0.004878542127 
      0.009947565182 
      0.010509651669 
      0.006736237405 
      0.003514071337 
      0.010583291716 
      0.006762188148 
      0.003427934172 
      0.010324284843 
      0.006807017679 
      0.003530574092 
      0.004064065200 
     -0.006837228369 
     -0.011706318631 
      0.004152654002 
     -0.006820479999 
     -0.011801646697 
      0.004192704360 
     -0.006869065658 
     -0.011839080633 
     -0.011902002738 
     -0.017931219013 
     -0.014415611129 
     -0.011988346894 
     -0.017897834890 
     -0.014406148593 
     -0.012065623397 
     -0.017865212651 
     -0.014355036301 
     -0.015536111556 
     -0.009408189617 
      0.000883628917 
     -0.015538980566 
     -0.009417552466 
      0.000884410671 
     -0.015502332863 
     -0.009445383790 
      0.000887321285 
     -0.000671956775 
      0.009537678167 
      0.015266497483 
     -0.000669948684 
      0.009540611321 
      0.015264254230 
     -0.000656064882 
      0.009547318000 
      0.015257588895 
      0.014115854093 
      0.017250961972 
      0.011102194700 
      0.014111464660 
      0.017251261458 
      0.011103227674 
      0.014102213166 
      0.017252218584 
      0.011104892595 
      0.010876821407 
      0.005737749311 
     -0.005203242332 
      0.010876761461 
      0.005737430110 
     -0.005202417983 
      0.010877070448 
      0.005736771603 
     -0.005201335326 
     -0.004563665153 
     -0.007976122405 
     -0.011513131777 
     -0.004563749507 
     -0.007976381493 
     -0.011509086082 
     -0.004563521402 
     -0.007977190838 
     -0.011501252533 
     -0.010498426366 
     -0.005978800572 
     -0.000355632971 
     -0.010497140813 
     -0.005981475065 
     -0.000348614337 
     -0.010491741373 
     -0.005987665165 
     -0.000345830353 
      0.000645932800 
      0.006046057601 
      0.010187192019 
      0.000650012709 
      0.006043013097 
      0.010202468881 
      0.000660022086 
      0.006043999246 
      0.010183005633 
      0.011180668797 
      0.007412156737 
      0.003774514272 
      0.011192820023 
      0.007399304769 
      0.003769695432 
      0.011200684536 
      0.007395822676 
      0.003646230626 
      0.004387068669 
     -0.006834390763 
     -0.012011668062 
      0.004397028698 
     -0.006830911045 
     -0.011940566961 
      0.004324313091 
     -0.006748823183 
     -0.011866289179 
     -0.012230885436 
     -0.018213674626 
     -0.014966235499 
     -0.012103511399 
     -0.018247458936 
     -0.014936943378 
     -0.012072467321 
     -0.018215763033 
     -0.015325675813 
     -0.015478643232 
     -0.010341298878 
      0.001328451083 
     -0.015323204689 
     -0.010565262934 
      0.000516592199 
     -0.015760643560 
     -0.010488537786 
      0.000567408218 
     -0.000047691704 
      0.004949433605 
      0.010020406846 
      0.000437863036 
      0.005044414666 
      0.009827837514 
      0.000885747001 
      0.004937265158 
      0.009669675448 
      0.010216215695 
      0.006788401931 
      0.003542355063 
      0.010134968500 
      0.006839650885 
      0.003439170134 
      0.010311455221 
      0.006855126378 
      0.003313014456 
      0.004167542453 
     -0.006861402780 
     -0.011826748764 
      0.004071289578 
     -0.006841164600 
     -0.011870816962 
      0.004001031093 
     -0.006813407950 
     -0.011868868151 
     -0.012068431004 
     -0.017872025846 
     -0.014351752845 
     -0.012161874621 
     -0.017840472666 
     -0.014306045904 
     -0.012168644438 
     -0.017825155267 
     -0.014285483925 
     -0.015498297255 
     -0.009444629564 
      0.000887585054 
     -0.015468420472 
     -0.009473487438 
      0.000892667110 
     -0.015451653106 
     -0.009495613427 
      0.000899586621 
     -0.000656189973 
      0.009546887662 
      0.015258259762 
     -0.000638332613 
      0.009553195886 
      0.015249563004 
     -0.000615725667 
      0.009556713779 
      0.015239170488 
      0.014103192342 
      0.017251990422 
      0.011104848014 
      0.014093983268 
      0.017253886075 
      0.011104705759 
      0.014086167415 
      0.017257527917 
      0.011102283634 
      0.010877284511 
      0.005736794525 
     -0.005201464175 
      0.010876092045 
      0.005736858674 
     -0.005200429617 
      0.010871680178 
      0.005737574879 
     -0.005196993319 
     -0.004563464229 
     -0.007977128118 
     -0.011501998114 
     -0.004563697066 
     -0.007978918972 
     -0.011492626521 
     -0.004563634594 
     -0.007982889952 
     -0.011481702669 
     -0.010492170513 
     -0.005987081050 
     -0.000346197896 
     -0.010484194083 
     -0.005992669569 
     -0.000361490765 
     -0.010472856518 
     -0.005996207952 
     -0.000394289037 
      0.000659162947 
      0.006043578165 
      0.010185149324 
      0.000653301285 
      0.006062469011 
      0.010173477471 
      0.000633907623 
      0.006092828234 
      0.010184464804 
      0.011201109527 
      0.007396775701 
      0.003645653572 
      0.011180724075 
      0.007368535125 
      0.003669782750 
      0.011156675020 
      0.007311065285 
      0.003770825123 
      0.004320964190 
     -0.006743985953 
     -0.011868094826 
      0.004326465197 
     -0.006731096458 
     -0.011791909645 
      0.004395021369 
     -0.006737055039 
     -0.011871710617 
     -0.012097056552 
     -0.018244544972 
     -0.015250157249 
     -0.012008983806 
     -0.018269948932 
     -0.015290200690 
     -0.012044416211 
     -0.018224960001 
     -0.015095950934 
     -0.015619312616 
     -0.010615443622 
      0.001081563285 
     -0.015531748572 
     -0.010545920518 
      0.000331058259 
     -0.015409182611 
     -0.010826767812 
      0.000601800044 
      0.001073257032 
      0.004865903712 
      0.009950531685 
      0.000470238828 
      0.004894139726 
      0.010096510621 
      0.000690839856 
      0.005143308318 
      0.009827889480 
      0.010298623425 
      0.006859896499 
      0.003343889389 
      0.010350389334 
      0.006786304365 
      0.003287011871 
      0.010344096960 
      0.006792834753 
      0.003221504646 
      0.004004653056 
     -0.006824247891 
     -0.011864279931 
      0.003879537811 
     -0.006797384672 
     -0.011792883648 
      0.003823277928 
     -0.006763743835 
     -0.011794146905 
     -0.012171387484 
     -0.017824031346 
     -0.014282794461 
     -0.012115896984 
     -0.017828771756 
     -0.014277512382 
     -0.012147769927 
     -0.017815508380 
     -0.014280586713 
     -0.015448459044 
     -0.009496994643 
      0.000899199933 
     -0.015446906564 
     -0.009510124655 
      0.000911539050 
     -0.015473079312 
     -0.009514916868 
      0.000921839072 
     -0.000615235449 
      0.009557230009 
      0.015238928924 
     -0.000591997026 
      0.009555660365 
      0.015232159127 
     -0.000583900239 
      0.009553622266 
      0.015231461975 
      0.014085651125 
      0.017257536141 
      0.011102401088 
      0.014083780903 
      0.017260741370 
      0.011099355228 
      0.014084354444 
      0.017261667870 
      0.011098253853 
      0.010871725795 
      0.005737526688 
     -0.005197017228 
      0.010867549966 
      0.005738358529 
     -0.005193735843 
      0.010866242810 
      0.005738667725 
     -0.005192974879 
     -0.004563627599 
     -0.007982852121 
     -0.011481442594 
     -0.004563260490 
     -0.007986549224 
     -0.011472133747 
     -0.004562968083 
     -0.007987686093 
     -0.011470445813 
     -0.010472830401 
     -0.005996556895 
     -0.000394239441 
     -0.010462498401 
     -0.005999453775 
     -0.000416660521 
     -0.010460122693 
     -0.005998878430 
     -0.000425892557 
      0.000634841777 
      0.006093301329 
      0.010178185934 
      0.000624027864 
      0.006110637156 
      0.010192617390 
      0.000616330799 
      0.006116766979 
      0.010203056851 
      0.011152621024 
      0.007315519552 
      0.003767958446 
      0.011158576496 
      0.007272154124 
      0.003770030728 
      0.011157387491 
      0.007259300458 
      0.003773481144 
      0.004387099422 
     -0.006733312379 
     -0.011869934881 
      0.004422471534 
     -0.006718486873 
     -0.011982046064 
      0.004419596301 
     -0.006720572373 
     -0.011973541196 
     -0.012062879585 
     -0.018196149965 
     -0.015064878998 
     -0.012105313260 
     -0.018090503637 
     -0.015024108372 
     -0.012075631286 
     -0.018071998636 
     -0.015222730004 
     -0.015612387021 
     -0.010631011046 
      0.000540083319 
     -0.015744817259 
     -0.010558067642 
      0.001002895510 
     -0.015537079113 
     -0.010553969239 
      0.000888148351 
SCALARS  HV  double
LOOKUP_TABLE default
     -0.000671550835 
      0.000243677334 
     -0.000137071728 
     -0.000001004856 
      0.000147449960 
     -0.000070741145 
     -0.000161319334 
     -0.000007875829 
     -0.000109920263 
     -0.000144118759 
      0.000018295428 
     -0.000034230920 
     -0.000042176808 
     -0.000028521972 
      0.000010625807 
      0.000182285512 
     -0.000023136726 
      0.000049112492 
     -0.000108426199 
      0.000007947467 
      0.000012141550 
      0.000019900002 
      0.000034255253 
     -0.000021490125 
      0.000045695023 
      0.000008956440 
     -0.000004154060 
      0.000001238839 
     -0.000006911058 
      0.000007743030 
     -0.000036271602 
     -0.000026197952 
      0.000013745566 
     -0.000008796587 
     -0.000037027057 
      0.000011416357 
      0.000002598508 
     -0.000000679172 
      0.000001922355 
      0.000020918968 
      0.000005192389 
     -0.000006562728 
      0.000028060175 
      0.000010135180 
     -0.000011947707 
      0.000000622849 
     -0.000000257253 
      0.000000470280 
     -0.000007221110 
      0.000001042894 
      0.000001533501 
     -0.000012239110 
      0.000001504884 
      0.000002031789 
      0.000000313766 
     -0.000000158410 
      0.000000091981 
      0.000000713127 
     -0.000000977324 
      0.000000692035 
      0.000001023514 
     -0.000001252975 
      0.000000505023 
      0.000000103488 
     -0.000000001304 
      0.000000157536 
      0.000001043513 
     -0.000000079133 
      0.000000397637 
      0.000001025590 
      0.000000132858 
      0.000000483817 
      0.000000042490 
     -0.000000047919 
      0.000000579726 
      0.000000420672 
     -0.000000513812 
      0.000000745279 
      0.000000257191 
     -0.000000825143 
      0.000000582543 
      0.000000654721 
     -0.000000493615 
      0.000001443201 
      0.000001556939 
      0.000000049620 
     -0.000004179138 
      0.000001633253 
      0.000000801671 
     -0.000007669151 
      0.000002150201 
     -0.000002598393 