# vtk DataFile Version 2.0
NDG-FEM NonhydrostaticStandingWave2d Simulation
ASCII
DATASET UNSTRUCTURED_GRID

POINTS 480 double
0.00000000000000000000  0.00000000000000000000  0.00000000000000000000
1.00000000000000000000  0.00000000000000000000  0.00000000000000000000
2.00000000000000000000  0.00000000000000000000  0.00000000000000000000
0.00000000000000000000  1.00000000000000000000  0.00000000000000000000
1.00000000000000000000  1.00000000000000000000  0.00000000000000000000
0.00000000000000000000  2.00000000000000000000  0.00000000000000000000
2.00000000000000000000  0.00000000000000000000  0.00000000000000000000
3.00000000000000000000  0.00000000000000000000  0.00000000000000000000
4.00000000000000000000  0.00000000000000000000  0.00000000000000000000
2.00000000000000000000  1.00000000000000000000  0.00000000000000000000
3.00000000000000000000  1.00000000000000000000  0.00000000000000000000
2.00000000000000000000  2.00000000000000000000  0.00000000000000000000
4.00000000000000000000  0.00000000000000000000  0.00000000000000000000
5.00000000000000000000  0.00000000000000000000  0.00000000000000000000
6.00000000000000000000  0.00000000000000000000  0.00000000000000000000
4.00000000000000000000  1.00000000000000000000  0.00000000000000000000
5.00000000000000000000  1.00000000000000000000  0.00000000000000000000
4.00000000000000000000  2.00000000000000000000  0.00000000000000000000
6.00000000000000000000  0.00000000000000000000  0.00000000000000000000
7.00000000000000000000  0.00000000000000000000  0.00000000000000000000
8.00000000000000000000  0.00000000000000000000  0.00000000000000000000
6.00000000000000000000  1.00000000000000000000  0.00000000000000000000
7.00000000000000000000  1.00000000000000000000  0.00000000000000000000
6.00000000000000000000  2.00000000000000000000  0.00000000000000000000
8.00000000000000000000  0.00000000000000000000  0.00000000000000000000
9.00000000000000000000  0.00000000000000000000  0.00000000000000000000
10.00000000000000000000  0.00000000000000000000  0.00000000000000000000
8.00000000000000000000  1.00000000000000000000  0.00000000000000000000
9.00000000000000000000  1.00000000000000000000  0.00000000000000000000
8.00000000000000000000  2.00000000000000000000  0.00000000000000000000
10.00000000000000000000  0.00000000000000000000  0.00000000000000000000
11.00000000000000000000  0.00000000000000000000  0.00000000000000000000
12.00000000000000000000  0.00000000000000000000  0.00000000000000000000
10.00000000000000000000  1.00000000000000000000  0.00000000000000000000
11.00000000000000000000  1.00000000000000000000  0.00000000000000000000
10.00000000000000000000  2.00000000000000000000  0.00000000000000000000
12.00000000000000000000  0.00000000000000000000  0.00000000000000000000
13.00000000000000000000  0.00000000000000000000  0.00000000000000000000
14.00000000000000000000  0.00000000000000000000  0.00000000000000000000
12.00000000000000000000  1.00000000000000000000  0.00000000000000000000
13.00000000000000000000  1.00000000000000000000  0.00000000000000000000
12.00000000000000000000  2.00000000000000000000  0.00000000000000000000
14.00000000000000000000  0.00000000000000000000  0.00000000000000000000
15.00000000000000000000  0.00000000000000000000  0.00000000000000000000
16.00000000000000000000  0.00000000000000000000  0.00000000000000000000
14.00000000000000000000  1.00000000000000000000  0.00000000000000000000
15.00000000000000000000  1.00000000000000000000  0.00000000000000000000
14.00000000000000000000  2.00000000000000000000  0.00000000000000000000
16.00000000000000000000  0.00000000000000000000  0.00000000000000000000
17.00000000000000000000  0.00000000000000000000  0.00000000000000000000
18.00000000000000000000  0.00000000000000000000  0.00000000000000000000
16.00000000000000000000  1.00000000000000000000  0.00000000000000000000
17.00000000000000000000  1.00000000000000000000  0.00000000000000000000
16.00000000000000000000  2.00000000000000000000  0.00000000000000000000
18.00000000000000000000  0.00000000000000000000  0.00000000000000000000
19.00000000000000000000  0.00000000000000000000  0.00000000000000000000
20.00000000000000000000  0.00000000000000000000  0.00000000000000000000
18.00000000000000000000  1.00000000000000000000  0.00000000000000000000
19.00000000000000000000  1.00000000000000000000  0.00000000000000000000
18.00000000000000000000  2.00000000000000000000  0.00000000000000000000
2.00000000000000000000  0.00000000000000000000  0.00000000000000000000
2.00000000000000000000  1.00000000000000000000  0.00000000000000000000
2.00000000000000000000  2.00000000000000000000  0.00000000000000000000
1.00000000000000000000  1.00000000000000000000  0.00000000000000000000
1.00000000000000000000  2.00000000000000000000  0.00000000000000000000
0.00000000000000000000  2.00000000000000000000  0.00000000000000000000
4.00000000000000000000  0.00000000000000000000  0.00000000000000000000
4.00000000000000000000  1.00000000000000000000  0.00000000000000000000
4.00000000000000000000  2.00000000000000000000  0.00000000000000000000
3.00000000000000000000  1.00000000000000000000  0.00000000000000000000
3.00000000000000000000  2.00000000000000000000  0.00000000000000000000
2.00000000000000000000  2.00000000000000000000  0.00000000000000000000
6.00000000000000000000  0.00000000000000000000  0.00000000000000000000
6.00000000000000000000  1.00000000000000000000  0.00000000000000000000
6.00000000000000000000  2.00000000000000000000  0.00000000000000000000
5.00000000000000000000  1.00000000000000000000  0.00000000000000000000
5.00000000000000000000  2.00000000000000000000  0.00000000000000000000
4.00000000000000000000  2.00000000000000000000  0.00000000000000000000
8.00000000000000000000  0.00000000000000000000  0.00000000000000000000
8.00000000000000000000  1.00000000000000000000  0.00000000000000000000
8.00000000000000000000  2.00000000000000000000  0.00000000000000000000
7.00000000000000000000  1.00000000000000000000  0.00000000000000000000
7.00000000000000000000  2.00000000000000000000  0.00000000000000000000
6.00000000000000000000  2.00000000000000000000  0.00000000000000000000
10.00000000000000000000  0.00000000000000000000  0.00000000000000000000
10.00000000000000000000  1.00000000000000000000  0.00000000000000000000
10.00000000000000000000  2.00000000000000000000  0.00000000000000000000
9.00000000000000000000  1.00000000000000000000  0.00000000000000000000
9.00000000000000000000  2.00000000000000000000  0.00000000000000000000
8.00000000000000000000  2.00000000000000000000  0.00000000000000000000
12.00000000000000000000  0.00000000000000000000  0.00000000000000000000
12.00000000000000000000  1.00000000000000000000  0.00000000000000000000
12.00000000000000000000  2.00000000000000000000  0.00000000000000000000
11.00000000000000000000  1.00000000000000000000  0.00000000000000000000
11.00000000000000000000  2.00000000000000000000  0.00000000000000000000
10.00000000000000000000  2.00000000000000000000  0.00000000000000000000
14.00000000000000000000  0.00000000000000000000  0.00000000000000000000
14.00000000000000000000  1.00000000000000000000  0.00000000000000000000
14.00000000000000000000  2.00000000000000000000  0.00000000000000000000
13.00000000000000000000  1.00000000000000000000  0.00000000000000000000
13.00000000000000000000  2.00000000000000000000  0.00000000000000000000
12.00000000000000000000  2.00000000000000000000  0.00000000000000000000
16.00000000000000000000  0.00000000000000000000  0.00000000000000000000
16.00000000000000000000  1.00000000000000000000  0.00000000000000000000
16.00000000000000000000  2.00000000000000000000  0.00000000000000000000
15.00000000000000000000  1.00000000000000000000  0.00000000000000000000
15.00000000000000000000  2.00000000000000000000  0.00000000000000000000
14.00000000000000000000  2.00000000000000000000  0.00000000000000000000
18.00000000000000000000  0.00000000000000000000  0.00000000000000000000
18.00000000000000000000  1.00000000000000000000  0.00000000000000000000
18.00000000000000000000  2.00000000000000000000  0.00000000000000000000
17.00000000000000000000  1.00000000000000000000  0.00000000000000000000
17.00000000000000000000  2.00000000000000000000  0.00000000000000000000
16.00000000000000000000  2.00000000000000000000  0.00000000000000000000
20.00000000000000000000  0.00000000000000000000  0.00000000000000000000
20.00000000000000000000  1.00000000000000000000  0.00000000000000000000
20.00000000000000000000  2.00000000000000000000  0.00000000000000000000
19.00000000000000000000  1.00000000000000000000  0.00000000000000000000
19.00000000000000000000  2.00000000000000000000  0.00000000000000000000
18.00000000000000000000  2.00000000000000000000  0.00000000000000000000
0.00000000000000000000  2.00000000000000000000  0.00000000000000000000
1.00000000000000000000  2.00000000000000000000  0.00000000000000000000
2.00000000000000000000  2.00000000000000000000  0.00000000000000000000
0.00000000000000000000  3.00000000000000000000  0.00000000000000000000
1.00000000000000000000  3.00000000000000000000  0.00000000000000000000
0.00000000000000000000  4.00000000000000000000  0.00000000000000000000
2.00000000000000000000  2.00000000000000000000  0.00000000000000000000
3.00000000000000000000  2.00000000000000000000  0.00000000000000000000
4.00000000000000000000  2.00000000000000000000  0.00000000000000000000
2.00000000000000000000  3.00000000000000000000  0.00000000000000000000
3.00000000000000000000  3.00000000000000000000  0.00000000000000000000
2.00000000000000000000  4.00000000000000000000  0.00000000000000000000
4.00000000000000000000  2.00000000000000000000  0.00000000000000000000
5.00000000000000000000  2.00000000000000000000  0.00000000000000000000
6.00000000000000000000  2.00000000000000000000  0.00000000000000000000
4.00000000000000000000  3.00000000000000000000  0.00000000000000000000
5.00000000000000000000  3.00000000000000000000  0.00000000000000000000
4.00000000000000000000  4.00000000000000000000  0.00000000000000000000
[...]
POINT_DATA 480
SCALARS  H  double
LOOKUP_TABLE default
      7.643573111013 
      7.642079210169 
      7.637067089640 
      7.643521580821 
      7.642004018036 
      7.643377759954 
      7.636985763863 
      7.629925621275 
      7.620685521159 
      7.637157872517 
      7.629824768047 
      7.637108791757 
      7.620665672854 
      7.611205904697 
      7.601796128776 
      7.620768362418 
      7.611175314765 
      7.620740606672 
      7.601833328340 
      7.593605879422 
      7.587537039613 
      7.601768813593 
      7.593676865992 
      7.601754190444 
      7.587606450385 
      7.583251034062 
      7.582327193096 
      7.587376176999 
      7.583411699291 
      7.587373133440 
      7.582396634083 
      7.583240487932 
      7.587557555653 
      7.582093218681 
      7.583413518429 
      7.582097845189 
      7.587605642938 
      7.593578228634 
      7.601823702250 
      7.587340281692 
      7.593709758330 
      7.587362785629 
      7.601825609232 
      7.611187135582 
      7.620690424560 
      7.601713662739 
      7.611217806911 
      7.601743671878 
      7.620651722701 
      7.629930979005 
      7.636984184412 
      7.620722545315 
      7.629857871366 
      7.620743575931 
      7.636908763947 
      7.642134042931 
      7.642721489455 
      7.637099660171 
      7.642013009945 
      7.637084727993 
      7.637007482230 
      7.637171936550 
      7.637136406149 
      7.642002932260 
      7.641994971753 
      7.643433660177 
      7.620676388669 
      7.620783060092 
      7.620764867980 
      7.629826807226 
      7.629837625939 
      7.637150999728 
      7.601828133293 
      7.601772088603 
      7.601762296583 
      7.611174062986 
      7.611192884249 
      7.620770499661 
      7.587593696067 
      7.587369441525 
      7.587368733653 
      7.593672125783 
      7.593684129797 
      7.601760275107 
      7.582379318308 
      7.582077497797 
      7.582106302185 
      7.583403493001 
      7.583396200278 
      7.587350523373 
      7.587590643179 
      7.587334847782 
      7.587364454624 
      7.583426282976 
      7.583399626053 
      7.582037323086 
      7.601823296587 
      7.601709939683 
      7.601734844016 
      7.593722425224 
      7.593686221828 
      7.587297381007 
      7.620657291703 
      7.620717474784 
      7.620721239704 
      7.611223988612 
      7.611198740219 
      7.601711493075 
      7.636929336145 
      7.637102585938 
      7.637066894486 
      7.629856207637 
      7.629855913988 
      7.620752990860 
      7.642654426128 
      7.643489082223 
      7.643304535133 
      7.641998210404 
      7.641954732216 
      7.637132977543 
      7.643387243856 
      7.641990738831 
      7.637168225378 
      7.643482272070 
      7.642015163524 
      7.643307111134 
      7.637114246717 
      7.629838832878 
      7.620773195716 
      7.637177876377 
      7.629852646515 
      7.637103478902 
      7.620746722942 
      7.611194473319 
      7.601732373092 
      7.620760389900 
      7.611196350904 
      7.620746114594 
      7.601757112418 
      7.593684844289 
      7.587313234429 
      7.601732978446 
      7.593676533523 
      7.601751281761 
      7.587371708663 
      7.583402376527 
      7.582048776670 
      7.587325577893 
      7.583383815283 
      7.587361624758 
      7.582082418225 
      7.583397039930 
      7.587345030521 
      7.582045383086 
      7.583376572679 
      7.582080143549 
      7.587342774000 
      7.593682849172 
      7.601750896885 
      7.587321265194 
      7.593670629601 
      7.587352832893 
      7.601740268496 
      7.611194495744 
      7.620756718791 
      7.601729774799 
      7.611194154664 
      7.601741320510 
      7.620748843143 
      7.629852402557 
      7.637115691834 
      7.620762582727 
      7.629849943142 
      7.620751463710 
      7.637110765987 
      7.641959653536 
      7.643326532998 
      7.637196113386 
      7.642024773421 
      7.637112090401 
      7.637122105502 
      7.637190227040 
      7.637134974577 
      7.642016211131 
      7.641992874884 
      7.643370587915 
      7.620759213719 
      7.620770458066 
      7.620768116618 
      7.629851743772 
      7.629837746621 
      7.637141751943 
      7.601761099081 
      7.601732544339 
      7.601745520148 
      7.611192175893 
      7.611193407007 
      7.620771517010 
      7.587373863407 
      7.587320038426 
      7.587339053854 
      7.593670631007 
      7.593683037562 
      7.601755123709 
      7.582095238552 
      7.582041962819 
      7.582070955953 
      7.583377809766 
      7.583396396611 
      7.587339150742 
      7.587363707552 
      7.587322462059 
      7.587351458436 
      7.583385444065 
      7.583400837995 
      7.582029899117 
      7.601744310107 
      7.601729383696 
      7.601738326636 
      7.593677618864 
      7.593687875951 
      7.587291673637 
      7.620728513324 
      7.620755394915 
      7.620739747100 
      7.611198450583 
      7.611198896006 
      7.601713537252 
      7.637076115471 
      7.637183944994 
      7.637105682879 
      7.629848381651 
      7.629841975452 
      7.620767090892 
      7.643264249348 
      7.643477917422 
      7.643347400275 
      7.642021547531 
      7.641989232780 
      7.637156147635 
      7.643347400275 
      7.641989232780 
      7.637156147635 
      7.643477917422 
      7.642021547531 
      7.643264249348 
      7.637105682879 
      7.629841975452 
      7.620767090892 
      7.637183944994 
      7.629848381651 
      7.637076115471 
      7.620739747100 
      7.611198896006 
      7.601713537252 
      7.620755394915 
      7.611198450583 
      7.620728513324 
      7.601738326636 
      7.593687875951 
      7.587291673637 
      7.601729383696 
      7.593677618864 
      7.601744310107 
      7.587351458436 
      7.583400837995 
      7.582029899117 
      7.587322462059 
      7.583385444065 
      7.587363707552 
      7.582070955953 
      7.583396396611 
      7.587339150742 
      7.582041962819 
      7.583377809766 
      7.582095238552 
      7.587339053854 
      7.593683037562 
      7.601755123709 
      7.587320038426 
      7.593670631007 
      7.587373863407 
      7.601745520148 
      7.611193407007 
      7.620771517010 
      7.601732544339 
      7.611192175893 
      7.601761099081 
      7.620768116618 
      7.629837746621 
      7.637141751943 
      7.620770458066 
      7.629851743772 
      7.620759213719 
      7.637134974577 
      7.641992874884 
      7.643370587915 
      7.637190227040 
      7.642016211131 
      7.637122105502 
      7.637112090401 
      7.637196113386 
      7.637110765987 
      7.642024773421 
      7.641959653536 
      7.643326532998 
      7.620751463710 
      7.620762582727 
      7.620748843143 
      7.629849943142 
      7.629852402557 
      7.637115691834 
      7.601741320510 
      7.601729774799 
      7.601740268496 
      7.611194154664 
      7.611194495744 
      7.620756718791 
      7.587352832893 
      7.587321265194 
      7.587342774000 
      7.593670629601 
      7.593682849172 
      7.601750896885 
      7.582080143549 
      7.582045383086 
      7.582082418225 
      7.583376572679 
      7.583397039930 
      7.587345030521 
      7.587361624758 
      7.587325577893 
      7.587371708663 
      7.583383815283 
      7.583402376527 
      7.582048776670 
      7.601751281761 
      7.601732978446 
      7.601757112418 
      7.593676533523 
      7.593684844289 
      7.587313234429 
      7.620746114594 
      7.620760389900 
      7.620746722942 
      7.611196350904 
      7.611194473319 
      7.601732373092 
      7.637103478902 
      7.637177876377 
      7.637114246717 
      7.629852646515 
      7.629838832878 
      7.620773195716 
      7.643307111134 
      7.643482272070 
      7.643387243856 
      7.642015163524 
      7.641990738831 
      7.637168225378 
      7.643304535133 
      7.641954732216 
      7.637132977543 
      7.643489082223 
      7.641998210404 
      7.642654426128 
      7.637066894486 
      7.629855913988 
      7.620752990860 
      7.637102585938 
      7.629856207637 
      7.636929336145 
      7.620721239704 
      7.611198740219 
      7.601711493075 
      7.620717474784 
      7.611223988612 
      7.620657291703 
      7.601734844016 
      7.593686221828 
      7.587297381007 
      7.601709939683 
      7.593722425224 
      7.601823296587 
      7.587364454624 
      7.583399626053 
      7.582037323086 
      7.587334847782 
      7.583426282976 
      7.587590643179 
      7.582106302185 
      7.583396200278 
      7.587350523373 
      7.582077497797 
      7.583403493001 
      7.582379318308 
      7.587368733653 
      7.593684129797 
      7.601760275107 
      7.587369441525 
      7.593672125783 
      7.587593696067 
      7.601762296583 
      7.611192884249 
      7.620770499661 
      7.601772088603 
      7.611174062986 
      7.601828133293 
      7.620764867980 
      7.629837625939 
      7.637150999728 
      7.620783060092 
      7.629826807226 
      7.620676388669 
      7.637136406149 
      7.641994971753 
      7.643433660177 
      7.637171936550 
      7.642002932260 
      7.637007482230 
      7.637084727993 
      7.637099660171 
      7.636908763947 
      7.642013009945 
      7.642134042931 
      7.642721489455 
      7.620743575931 
      7.620722545315 
      7.620651722701 
      7.629857871366 
      7.629930979005 
      7.636984184412 
      7.601743671878 
      7.601713662739 
      7.601825609232 
      7.611217806911 
      7.611187135582 
      7.620690424560 
      7.587362785629 
      7.587340281692 
      7.587605642938 
      7.593709758330 
      7.593578228634 
      7.601823702250 
      7.582097845189 
      7.582093218681 
      7.582396634083 
      7.583413518429 
      7.583240487932 
      7.587557555653 
      7.587373133440 
      7.587376176999 
      7.587606450385 
      7.583411699291 
      7.583251034062 
      7.582327193096 
      7.601754190444 
      7.601768813593 
      7.601833328340 
      7.593676865992 
      7.593605879422 
      7.587537039613 
      7.620740606672 
      7.620768362418 
      7.620665672854 
      7.611175314765 
      7.611205904697 
      7.601796128776 
      7.637108791757 
      7.637157872517 
      7.636985763863 
      7.629824768047 
      7.629925621275 
      7.620685521159 
      7.643377759954 
      7.643521580821 
      7.643573111013 
      7.642004018036 
      7.642079210169 
      7.637067089640 
SCALARS  HU  double
LOOKUP_TABLE default
      0.000518759787 
     -0.162990462171 
     -0.315822620904 
      0.000454933184 
     -0.165186744484 
      0.000636855420 
     -0.313515051566 
     -0.428917683345 
     -0.505002524781 
     -0.311789418094 
     -0.429285716005 
     -0.312954378191 
     -0.504043201117 
     -0.527411344525 
     -0.499416557457 
     -0.502384586593 
     -0.526687285741 
     -0.503664185613 
     -0.500290901575 
     -0.424458404639 
     -0.304927710605 
     -0.499373234118 
     -0.423006916305 
     -0.500278033231 
     -0.307266457617 
     -0.162208319820 
      0.003161782890 
     -0.307439105688 
     -0.160618703904 
     -0.307631580464 
      0.000452418685 
      0.160217164349 
      0.310081172732 
     -0.000855716353 
      0.161486523055 
     -0.000311346278 
      0.307848377211 
      0.423216563285 
      0.501249974025 
      0.306058185175 
      0.423552309582 
      0.307049812030 
      0.500425094263 
      0.527422787834 
      0.502837714869 
      0.498849975821 
      0.526664567985 
      0.500020188313 
      0.503710574770 
      0.430257015930 
      0.310646961536 
      0.502923127261 
      0.428678498973 
      0.503850136583 
      0.312942439925 
      0.166134183449 
     -0.002570601189 
      0.313087279378 
      0.164025237736 
      0.313622608679 
     -0.314406939395 
     -0.312538107326 
     -0.314105247507 
     -0.165630736614 
     -0.164819160648 
      0.001854741775 
     -0.504271188307 
     -0.502675330070 
     -0.504080088730 
     -0.429595455419 
     -0.429620354658 
     -0.312134676080 
     -0.499723559382 
     -0.499074769299 
     -0.499782433384 
     -0.526682764258 
     -0.527338298098 
     -0.503647313204 
     -0.306127179960 
     -0.306662267688 
     -0.306435749746 
     -0.422694762108 
     -0.423722397576 
     -0.501048490554 
      0.001535737174 
      0.000138111285 
      0.001101754860 
     -0.160124487798 
     -0.161089791872 
     -0.308903548632 
      0.308649605684 
      0.306805351477 
      0.308272490748 
      0.161976242183 
      0.161352036592 
     -0.001582141764 
      0.500602422684 
      0.499113449791 
      0.500439073991 
      0.423835468541 
      0.423880986806 
      0.306293923439 
      0.503184499363 
      0.502590629485 
      0.503322327276 
      0.526644184920 
      0.527344826791 
      0.500048958005 
      0.311892762773 
      0.312300994278 
      0.312280224563 
      0.428357128441 
      0.429484189214 
      0.504672299718 
     -0.000870320652 
     -0.000527848388 
     -0.000906571985 
      0.163486477399 
      0.164542559112 
      0.314996361276 
      0.000789436022 
     -0.164249464906 
     -0.315260853719 
      0.000518193095 
     -0.164389161924 
      0.000763365395 
     -0.312851126530 
     -0.429231685824 
     -0.504860302837 
     -0.311946473376 
     -0.429043397859 
     -0.312622272498 
     -0.503678839582 
     -0.527312351577 
     -0.499835391166 
     -0.502373554705 
     -0.526904808423 
     -0.503541880349 
     -0.500374950076 
     -0.424064639914 
     -0.305758937236 
     -0.499148759514 
     -0.423585466576 
     -0.500451560172 
     -0.307793811774 
     -0.161660284956 
      0.002193318806 
     -0.307115955549 
     -0.161323680593 
     -0.308024809715 
     -0.000397097931 
      0.160758873810 
      0.309372405688 
     -0.000591066721 
      0.160921761727 
     -0.000740423122 
      0.307078557537 
      0.423503981748 
      0.501133686362 
      0.306196497700 
      0.423347474577 
      0.306716357244 
      0.500121187655 
      0.527319376307 
      0.503371249948 
      0.498809553157 
      0.526906950622 
      0.499949300307 
      0.503976245890 
      0.429828970981 
      0.311615449424 
      0.502722619365 
      0.429276524200 
      0.504052955347 
      0.313668594323 
      0.165219206653 
     -0.002123277046 
      0.312875594719 
      0.164784913864 
      0.313934038207 
     -0.314002741114 
     -0.312851557987 
     -0.313820558795 
     -0.164939728248 
     -0.165112192887 
      0.002084954066 
     -0.504106078522 
     -0.502757836454 
     -0.504029745654 
     -0.429381305728 
     -0.429709897921 
     -0.311781384985 
     -0.499898895028 
     -0.498859854488 
     -0.500032936267 
     -0.526909737592 
     -0.527284822598 
     -0.503458140703 
     -0.306574642028 
     -0.306254442092 
     -0.306872619622 
     -0.423265977191 
     -0.423541370128 
     -0.501107046574 
      0.000913363198 
      0.000551739418 
      0.000622872264 
     -0.160795511964 
     -0.160849771300 
     -0.309229999862 
      0.308160074625 
      0.307102027242 
      0.307951908072 
      0.161449781435 
      0.161541752325 
     -0.001990754121 
      0.500495918077 
      0.499167835549 
      0.500387046561 
      0.423662782410 
      0.423967589429 
      0.305944818227 
      0.503492462565 
      0.502412171716 
      0.503555321588 
      0.526893695402 
      0.527281818877 
      0.499924551804 
      0.312477833427 
      0.311979785238 
      0.312673084472 
      0.428937763651 
      0.429266815526 
      0.504822956492 
     -0.000766073551 
     -0.000561300113 
     -0.000843095002 
      0.164218671735 
      0.164403667025 
      0.315211706348 
      0.000843095002 
     -0.164403667025 
     -0.315211706348 
      0.000561300113 
     -0.164218671735 
      0.000766073551 
     -0.312673084472 
     -0.429266815526 
     -0.504822956492 
     -0.311979785238 
     -0.428937763651 
     -0.312477833427 
     -0.503555321588 
     -0.527281818877 
     -0.499924551804 
     -0.502412171716 
     -0.526893695402 
     -0.503492462565 
     -0.500387046561 
     -0.423967589429 
     -0.305944818227 
     -0.499167835549 
     -0.423662782410 
     -0.500495918077 
     -0.307951908072 
     -0.161541752325 
      0.001990754121 
     -0.307102027242 
     -0.161449781435 
     -0.308160074625 
     -0.000622872264 
      0.160849771300 
      0.309229999862 
     -0.000551739418 
      0.160795511964 
     -0.000913363198 
      0.306872619622 
      0.423541370128 
      0.501107046574 
      0.306254442092 
      0.423265977191 
      0.306574642028 
      0.500032936267 
      0.527284822598 
      0.503458140703 
      0.498859854488 
      0.526909737592 
      0.499898895028 
      0.504029745654 
      0.429709897921 
      0.311781384985 
      0.502757836454 
      0.429381305728 
      0.504106078522 
      0.313820558795 
      0.165112192887 
     -0.002084954066 
      0.312851557987 
      0.164939728248 
      0.314002741114 
     -0.313934038207 
     -0.312875594719 
     -0.313668594323 
     -0.164784913864 
     -0.165219206653 
      0.002123277046 
     -0.504052955347 
     -0.502722619365 
     -0.503976245890 
     -0.429276524200 
     -0.429828970981 
     -0.311615449424 
     -0.499949300307 
     -0.498809553157 
     -0.500121187655 
     -0.526906950622 
     -0.527319376307 
     -0.503371249948 
     -0.306716357244 
     -0.306196497700 
     -0.307078557537 
     -0.423347474577 
     -0.423503981748 
     -0.501133686362 
      0.000740423122 
      0.000591066721 
      0.000397097931 
     -0.160921761727 
     -0.160758873810 
     -0.309372405688 
      0.308024809715 
      0.307115955549 
      0.307793811774 
      0.161323680593 
      0.161660284956 
     -0.002193318806 
      0.500451560172 
      0.499148759514 
      0.500374950076 
      0.423585466576 
      0.424064639914 
      0.305758937236 
      0.503541880349 
      0.502373554705 
      0.503678839582 
      0.526904808423 
      0.527312351577 
      0.499835391166 
      0.312622272498 
      0.311946473376 
      0.312851126530 
      0.429043397859 
      0.429231685824 
      0.504860302837 
     -0.000763365395 
     -0.000518193095 
     -0.000789436022 
      0.164389161924 
      0.164249464906 
      0.315260853719 
      0.000906571985 
     -0.164542559112 
     -0.314996361276 
      0.000527848388 
     -0.163486477399 
      0.000870320652 
     -0.312280224563 
     -0.429484189214 
     -0.504672299718 
     -0.312300994278 
     -0.428357128441 
     -0.311892762773 
     -0.503322327276 
     -0.527344826791 
     -0.500048958005 
     -0.502590629485 
     -0.526644184920 
     -0.503184499363 
     -0.500439073991 
     -0.423880986806 
     -0.306293923439 
     -0.499113449791 
     -0.423835468541 
     -0.500602422684 
     -0.308272490748 
     -0.161352036592 
      0.001582141764 
     -0.306805351477 
     -0.161976242183 
     -0.308649605683 
     -0.001101754860 
      0.161089791872 
      0.308903548632 
     -0.000138111285 
      0.160124487798 
     -0.001535737174 
      0.306435749746 
      0.423722397576 
      0.501048490554 
      0.306662267688 
      0.422694762108 
      0.306127179960 
      0.499782433384 
      0.527338298098 
      0.503647313204 
      0.499074769299 
      0.526682764258 
      0.499723559382 
      0.504080088730 
      0.429620354658 
      0.312134676080 
      0.502675330070 
      0.429595455419 
      0.504271188307 
      0.314105247507 
      0.164819160648 
     -0.001854741775 
      0.312538107326 
      0.165630736614 
      0.314406939395 
     -0.313622608679 
     -0.313087279378 
     -0.312942439925 
     -0.164025237736 