# vtk DataFile Version 2.0
NDG-FEM NonhydrostaticStandingWave2d Simulation
ASCII
DATASET UNSTRUCTURED_GRID

POINTS 405 double
0.00000000000000000000  0.00000000000000000000  0.00000000000000000000
1.00000000000000000000  0.00000000000000000000  0.00000000000000000000
2.00000000000000000000  0.00000000000000000000  0.00000000000000000000
0.00000000000000000000  1.00000000000000000000  0.00000000000000000000
1.00000000000000000000  1.00000000000000000000  0.00000000000000000000
2.00000000000000000000  1.00000000000000000000  0.00000000000000000000
0.00000000000000000000  2.00000000000000000000  0.00000000000000000000
1.00000000000000000000  2.00000000000000000000  0.00000000000000000000
2.00000000000000000000  2.00000000000000000000  0.00000000000000000000
2.00000000000000000000  0.00000000000000000000  0.00000000000000000000
3.00000000000000000000  0.00000000000000000000  0.00000000000000000000
4.00000000000000000000  0.00000000000000000000  0.00000000000000000000
2.00000000000000000000  1.00000000000000000000  0.00000000000000000000
3.00000000000000000000  1.00000000000000000000  0.00000000000000000000
4.00000000000000000000  1.00000000000000000000  0.00000000000000000000
2.00000000000000000000  2.00000000000000000000  0.00000000000000000000
3.00000000000000000000  2.00000000000000000000  0.00000000000000000000
4.00000000000000000000  2.00000000000000000000  0.00000000000000000000
4.00000000000000000000  0.00000000000000000000  0.00000000000000000000
5.00000000000000000000  0.00000000000000000000  0.00000000000000000000
6.00000000000000000000  0.00000000000000000000  0.00000000000000000000
4.00000000000000000000  1.00000000000000000000  0.00000000000000000000
5.00000000000000000000  1.00000000000000000000  0.00000000000000000000
6.00000000000000000000  1.00000000000000000000  0.00000000000000000000
4.00000000000000000000  2.00000000000000000000  0.00000000000000000000
5.00000000000000000000  2.00000000000000000000  0.00000000000000000000
6.00000000000000000000  2.00000000000000000000  0.00000000000000000000
6.00000000000000000000  0.00000000000000000000  0.00000000000000000000
7.00000000000000000000  0.00000000000000000000  0.00000000000000000000
8.00000000000000000000  0.00000000000000000000  0.00000000000000000000
6.00000000000000000000  1.00000000000000000000  0.00000000000000000000
7.00000000000000000000  1.00000000000000000000  0.00000000000000000000
8.00000000000000000000  1.00000000000000000000  0.00000000000000000000
6.00000000000000000000  2.00000000000000000000  0.00000000000000000000
7.00000000000000000000  2.00000000000000000000  0.00000000000000000000
8.00000000000000000000  2.00000000000000000000  0.00000000000000000000
8.00000000000000000000  0.00000000000000000000  0.00000000000000000000
9.00000000000000000000  0.00000000000000000000  0.00000000000000000000
10.00000000000000000000  0.00000000000000000000  0.00000000000000000000
8.00000000000000000000  1.00000000000000000000  0.00000000000000000000
9.00000000000000000000  1.00000000000000000000  0.00000000000000000000
10.00000000000000000000  1.00000000000000000000  0.00000000000000000000
8.00000000000000000000  2.00000000000000000000  0.00000000000000000000
9.00000000000000000000  2.00000000000000000000  0.00000000000000000000
10.00000000000000000000  2.00000000000000000000  0.00000000000000000000
10.00000000000000000000  0.00000000000000000000  0.00000000000000000000
11.00000000000000000000  0.00000000000000000000  0.00000000000000000000
12.00000000000000000000  0.00000000000000000000  0.00000000000000000000
10.00000000000000000000  1.00000000000000000000  0.00000000000000000000
11.00000000000000000000  1.00000000000000000000  0.00000000000000000000
12.00000000000000000000  1.00000000000000000000  0.00000000000000000000
10.00000000000000000000  2.00000000000000000000  0.00000000000000000000
11.00000000000000000000  2.00000000000000000000  0.00000000000000000000
12.00000000000000000000  2.00000000000000000000  0.00000000000000000000
12.00000000000000000000  0.00000000000000000000  0.00000000000000000000
13.00000000000000000000  0.00000000000000000000  0.00000000000000000000
14.00000000000000000000  0.00000000000000000000  0.00000000000000000000
12.00000000000000000000  1.00000000000000000000  0.00000000000000000000
13.00000000000000000000  1.00000000000000000000  0.00000000000000000000
14.00000000000000000000  1.00000000000000000000  0.00000000000000000000
12.00000000000000000000  2.00000000000000000000  0.00000000000000000000
13.00000000000000000000  2.00000000000000000000  0.00000000000000000000
14.00000000000000000000  2.00000000000000000000  0.00000000000000000000
14.00000000000000000000  0.00000000000000000000  0.00000000000000000000
15.00000000000000000000  0.00000000000000000000  0.00000000000000000000
16.00000000000000000000  0.00000000000000000000  0.00000000000000000000
14.00000000000000000000  1.00000000000000000000  0.00000000000000000000
15.00000000000000000000  1.00000000000000000000  0.00000000000000000000
16.00000000000000000000  1.00000000000000000000  0.00000000000000000000
14.00000000000000000000  2.00000000000000000000  0.00000000000000000000
15.00000000000000000000  2.00000000000000000000  0.00000000000000000000
16.00000000000000000000  2.00000000000000000000  0.00000000000000000000
16.00000000000000000000  0.00000000000000000000  0.00000000000000000000
17.00000000000000000000  0.00000000000000000000  0.00000000000000000000
18.00000000000000000000  0.00000000000000000000  0.00000000000000000000
16.00000000000000000000  1.00000000000000000000  0.00000000000000000000
17.00000000000000000000  1.00000000000000000000  0.00000000000000000000
18.00000000000000000000  1.00000000000000000000  0.00000000000000000000
16.00000000000000000000  2.00000000000000000000  0.00000000000000000000
17.00000000000000000000  2.00000000000000000000  0.00000000000000000000
18.00000000000000000000  2.00000000000000000000  0.00000000000000000000
18.00000000000000000000  0.00000000000000000000  0.00000000000000000000
19.00000000000000000000  0.00000000000000000000  0.00000000000000000000
20.00000000000000000000  0.00000000000000000000  0.00000000000000000000
18.00000000000000000000  1.00000000000000000000  0.00000000000000000000
19.00000000000000000000  1.00000000000000000000  0.00000000000000000000
20.00000000000000000000  1.00000000000000000000  0.00000000000000000000
18.00000000000000000000  2.00000000000000000000  0.00000000000000000000
19.00000000000000000000  2.00000000000000000000  0.00000000000000000000
20.00000000000000000000  2.00000000000000000000  0.00000000000000000000
20.00000000000000000000  0.00000000000000000000  0.00000000000000000000
21.00000000000000000000  0.00000000000000000000  0.00000000000000000000
22.00000000000000000000  0.00000000000000000000  0.00000000000000000000
20.00000000000000000000  1.00000000000000000000  0.00000000000000000000
21.00000000000000000000  1.00000000000000000000  0.00000000000000000000
22.00000000000000000000  1.00000000000000000000  0.00000000000000000000
20.00000000000000000000  2.00000000000000000000  0.00000000000000000000
21.00000000000000000000  2.00000000000000000000  0.00000000000000000000
22.00000000000000000000  2.00000000000000000000  0.00000000000000000000
22.00000000000000000000  0.00000000000000000000  0.00000000000000000000
23.00000000000000000000  0.00000000000000000000  0.00000000000000000000
24.00000000000000000000  0.00000000000000000000  0.00000000000000000000
22.00000000000000000000  1.00000000000000000000  0.00000000000000000000
23.00000000000000000000  1.00000000000000000000  0.00000000000000000000
24.00000000000000000000  1.00000000000000000000  0.00000000000000000000
22.00000000000000000000  2.00000000000000000000  0.00000000000000000000
23.00000000000000000000  2.00000000000000000000  0.00000000000000000000
24.00000000000000000000  2.00000000000000000000  0.00000000000000000000
24.00000000000000000000  0.00000000000000000000  0.00000000000000000000
25.00000000000000000000  0.00000000000000000000  0.00000000000000000000
26.00000000000000000000  0.00000000000000000000  0.00000000000000000000
24.00000000000000000000  1.00000000000000000000  0.00000000000000000000
25.00000000000000000000  1.00000000000000000000  0.00000000000000000000
26.00000000000000000000  1.00000000000000000000  0.00000000000000000000
24.00000000000000000000  2.00000000000000000000  0.00000000000000000000
25.00000000000000000000  2.00000000000000000000  0.00000000000000000000
26.00000000000000000000  2.00000000000000000000  0.00000000000000000000
26.00000000000000000000  0.00000000000000000000  0.00000000000000000000
27.00000000000000000000  0.00000000000000000000  0.00000000000000000000
28.00000000000000000000  0.00000000000000000000  0.00000000000000000000
26.00000000000000000000  1.00000000000000000000  0.00000000000000000000
27.00000000000000000000  1.00000000000000000000  0.00000000000000000000
28.00000000000000000000  1.00000000000000000000  0.00000000000000000000
26.00000000000000000000  2.00000000000000000000  0.00000000000000000000
27.00000000000000000000  2.00000000000000000000  0.00000000000000000000
28.00000000000000000000  2.00000000000000000000  0.00000000000000000000
28.00000000000000000000  0.00000000000000000000  0.00000000000000000000
29.00000000000000000000  0.00000000000000000000  0.00000000000000000000
30.00000000000000000000  0.00000000000000000000  0.00000000000000000000
28.00000000000000000000  1.00000000000000000000  0.00000000000000000000
29.00000000000000000000  1.00000000000000000000  0.00000000000000000000
30.00000000000000000000  1.00000000000000000000  0.00000000000000000000
28.00000000000000000000  2.00000000000000000000  0.00000000000000000000
29.00000000000000000000  2.00000000000000000000  0.00000000000000000000
30.00000000000000000000  2.00000000000000000000  0.00000000000000000000
0.00000000000000000000  2.00000000000000000000  0.00000000000000000000
1.00000000000000000000  2.00000000000000000000  0.00000000000000000000
[...]
POINT_DATA 405
SCALARS  H  double
LOOKUP_TABLE default
      7.578663903486 
      7.580301493354 
      7.585299381529 
      7.578630538979 
      7.580314139965 
      7.585252370550 
      7.578705454306 
      7.580310955903 
      7.585269480616 
      7.585203884504 
      7.592503483578 
      7.602027725343 
      7.585195402526 
      7.592507354378 
      7.602022912434 
      7.585183833417 
      7.592507021044 
      7.602025185230 
      7.601762650860 
      7.612086810619 
      7.622376569414 
      7.601761693589 
      7.612087411165 
      7.622375771012 
      7.601761012818 
      7.612086506630 
      7.622377156795 
      7.622138910031 
      7.631559666112 
      7.638717625613 
      7.622138818865 
      7.631559684176 
      7.638717506404 
      7.622139497314 
      7.631559417033 
      7.638717800669 
      7.638581050193 
      7.643530584494 
      7.644888229083 
      7.638581102911 
      7.643530590447 
      7.644888197434 
      7.638581363678 
      7.643530542067 
      7.644888237763 
      7.644887932824 
      7.643530510117 
      7.638582440368 
      7.644887937919 
      7.643530512598 
      7.638582433790 
      7.644887994104 
      7.643530507659 
      7.638582435714 
      7.638718449688 
      7.631558494852 
      7.622139790371 
      7.638718450877 
      7.631558495144 
      7.622139790002 
      7.638718458857 
      7.631558495073 
      7.622139789390 
      7.622377449864 
      7.612088550377 
      7.601748733819 
      7.622377451096 
      7.612088549799 
      7.601748735860 
      7.622377452008 
      7.612088549834 
      7.601748735851 
      7.602009867945 
      7.592496237420 
      7.585209065799 
      7.602009872599 
      7.592496234678 
      7.585209076414 
      7.602009872772 
      7.592496234521 
      7.585209077145 
      7.585383000416 
      7.580327195907 
      7.578939254196 
      7.585383022590 
      7.580327179510 
      7.578939306420 
      7.585383022771 
      7.580327180040 
      7.578939311267 
      7.578939040709 
      7.580327334003 
      7.585383529683 
      7.578939140827 
      7.580327263301 
      7.585383751894 
      7.578939145493 
      7.580327257612 
      7.585383784271 
      7.585208265503 
      7.592495632747 
      7.602012794911 
      7.585208696320 
      7.592495369728 
      7.602013036045 
      7.585208763146 
      7.592495284353 
      7.602013132621 
      7.601749874232 
      7.612088908409 
      7.622373783594 
      7.601751057139 
      7.612088266681 
      7.622370683389 
      7.601751439882 
      7.612088120129 
      7.622368649326 
      7.622130897133 
      7.631535538472 
      7.638777780151 
      7.622129396745 
      7.631540591332 
      7.638763436160 
      7.622129976934 
      7.631542562148 
      7.638753501684 
      7.638701107926 
      7.643551539648 
      7.644976699825 
      7.638703009004 
      7.643552380845 
      7.645032647730 
      7.638698837767 
      7.643557386237 
      7.645040941468 
      7.578737635090 
      7.580301786346 
      7.585290558133 
      7.578833320924 
      7.580288724441 
      7.585285325842 
      7.578712302308 
      7.580328005854 
      7.585227635858 
      7.585185839266 
      7.592506234517 
      7.602026423629 
      7.585188676708 
      7.592509545990 
      7.602021355425 
      7.585158095078 
      7.592516558416 
      7.602016765124 
      7.601761573605 
      7.612086496624 
      7.622377176867 
      7.601760074971 
      7.612087074694 
      7.622376178079 
      7.601752761929 
      7.612087498864 
      7.622376537252 
      7.622139509846 
      7.631559424650 
      7.638717787790 
      7.622139354418 
      7.631559538784 
      7.638717524532 
      7.622138398880 
      7.631559467488 
      7.638717759263 
      7.638581355332 
      7.643530545523 
      7.644888231957 
      7.638581288968 
      7.643530592036 
      7.644888156995 
      7.638581194783 
      7.643530564349 
      7.644888217754 
      7.644887989229 
      7.643530508379 
      7.638582434556 
      7.644887954649 
      7.643530521161 
      7.638582418642 
      7.644887942053 
      7.643530516103 
      7.638582430917 
      7.638718458205 
      7.631558495159 
      7.622139789310 
      7.638718447225 
      7.631558497622 
      7.622139786541 
      7.638718444518 
      7.631558496663 
      7.622139789164 
      7.622377451815 
      7.612088549907 
      7.601748735676 
      7.622377449075 
      7.612088550553 
      7.601748734479 
      7.622377449150 
      7.612088549863 
      7.601748735724 
      7.602009872293 
      7.592496234872 
      7.585209076709 
      7.602009870083 
      7.592496236101 
      7.585209074871 
      7.602009873712 
      7.592496233907 
      7.585209073815 
      7.585383020372 
      7.580327180955 
      7.578939312237 
      7.585383015664 
      7.580327183113 
      7.578939318979 
      7.585383028299 
      7.580327178406 
      7.578939281293 
      7.578939135799 
      7.580327261117 
      7.585383808715 
      7.578939137261 
      7.580327253203 
      7.585383887655 
      7.578939158630 
      7.580327265636 
      7.585383579279 
      7.585208731778 
      7.592495297585 
      7.602013260015 
      7.585208846356 
      7.592495191772 
      7.602013617640 
      7.585208690679 
      7.592495433391 
      7.602011835189 
      7.601751557829 
      7.612087902716 
      7.622369879073 
      7.601752300566 
      7.612087374699 
      7.622370369313 
      7.601750527826 
      7.612089220343 
      7.622363194720 
      7.622130664301 
      7.631541533610 
      7.638757630438 
      7.622132906291 
      7.631541295639 
      7.638753856436 
      7.622122076816 
      7.631550622999 
      7.638750678094 
      7.638708458650 
      7.643551997217 
      7.645040643086 
      7.638715710583 
      7.643547242068 
      7.645079976645 
      7.638687114345 
      7.643545489902 
      7.645113933914 
      7.578803352595 
      7.580310433112 
      7.585268010174 
      7.578737813295 
      7.580307355225 
      7.585265363571 
      7.578683241264 
      7.580329447068 
      7.585227520469 
      7.585156785207 
      7.592515682815 
      7.602018762240 
      7.585169484453 
      7.592513183212 
      7.602020144566 
      7.585161117036 
      7.592517604136 
      7.602015425818 
      7.601752855071 
      7.612087237802 
      7.622376917697 
      7.601755482726 
      7.612087279613 
      7.622376400635 
      7.601751101323 
      7.612088255697 
      7.622375908669 
      7.622138633653 
      7.631559405651 
      7.638717858614 
      7.622138528406 
      7.631559540821 
      7.638717662657 
      7.622137401047 
      7.631559710146 
      7.638717705739 
      7.638581251902 
      7.643530549501 
      7.644888227982 
      7.638581114951 
      7.643530590907 
      7.644888203484 
      7.638580867226 
      7.643530565207 
      7.644888263870 
      7.644887952467 
      7.643530514721 
      7.638582431545 
      7.644887918756 
      7.643530517208 
      7.638582433336 
      7.644887897847 
      7.643530506388 
      7.638582454217 
      7.638718446900 
      7.631558496698 
      7.622139788968 
      7.638718441632 
      7.631558495835 
      7.622139790793 
      7.638718447762 
      7.631558492759 
      7.622139795140 
      7.622377449363 
      7.612088549856 
      7.601748736013 
      7.622377449744 
      7.612088549476 
      7.601748735726 
      7.622377451723 
      7.612088548881 
      7.601748734734 
      7.602009873906 
      7.592496233608 
      7.585209075390 
      7.602009874599 
      7.592496233935 
      7.585209071275 
      7.602009874509 
      7.592496234586 
      7.585209060863 
      7.585383030203 
      7.580327176617 
      7.578939287630 
      7.585383029173 
      7.580327179467 
      7.578939275685 
      7.585383022041 
      7.580327187961 
      7.578939213311 
      7.578939162692 
      7.580327258036 
      7.585383578465 
      7.578939156639 
      7.580327270351 
      7.585383594896 
      7.578939088373 
      7.580327321099 
      7.585383281389 
      7.585208727812 
      7.592495408031 
      7.602011833942 
      7.585208709657 
      7.592495408834 
      7.602011946971 
      7.585208325733 
      7.592495689562 
      7.602011127056 
      7.601750537532 
      7.612089284017 
      7.622362099411 
      7.601750625565 
      7.612089106338 
      7.622362932260 
      7.601749040093 
      7.612090376855 
      7.622360878666 
      7.622122051576 
      7.631551453752 
      7.638743402522 
      7.622122323593 
      7.631551158060 
      7.638752745021 
      7.622117967138 
      7.631554138691 
      7.638756177611 
      7.638698855146 
      7.643544421319 
      7.645135077652 
      7.638726864311 
      7.643525520329 
      7.645236339954 
      7.638687699569 
      7.643543201825 
      7.645075512059 
SCALARS  HU  double
LOOKUP_TABLE default
      0.000441413466 
     -0.254938279034 
     -0.483354612974 
      0.001167711618 
     -0.255027502623 
     -0.483308578272 
      0.001285008130 
     -0.254868321949 
     -0.483590527542 
     -0.482190016966 
     -0.662176135935 
     -0.778420284343 
     -0.482211333754 
     -0.662159339849 
     -0.778450656044 
     -0.482331601927 
     -0.662153260453 
     -0.778439364181 
     -0.777614088891 
     -0.814316075380 
     -0.773326580622 
     -0.777617329121 
     -0.814313016897 
     -0.773330973948 
     -0.777629064663 
     -0.814318565806 
     -0.773321969569 
     -0.774144343567 
     -0.655386591492 
     -0.474944801439 
     -0.774143548914 
     -0.655386684621 
     -0.474945370404 
     -0.774139749243 
     -0.655388486531 
     -0.474943562323 
     -0.477115010077 
     -0.249552916934 
      0.001341268201 
     -0.477114266385 
     -0.249552920657 
      0.001341123396 
     -0.477112496093 
     -0.249553241583 
      0.001341322664 
     -0.001339503582 
      0.249551713104 
      0.477108418092 
     -0.001339383329 
      0.249551724155 
      0.477108384144 
     -0.001338984819 
      0.249551694862 
      0.477108378232 
      0.474946090677 
      0.655395413772 
      0.774130157026 
      0.474946103979 
      0.655395416601 
      0.774130149470 
      0.474946164901 
      0.655395417363 
      0.774130141999 
      0.773310731267 
      0.814305401620 
      0.777731833058 
      0.773310727438 
      0.814305405756 
      0.777731818544 
      0.773310734746 
      0.814305406453 
      0.777731816175 
      0.778565373253 
      0.662249360760 
      0.482107394933 
      0.778565341223 
      0.662249381153 
      0.482107326720 
      0.778565342148 
      0.662249381646 
      0.482107319547 
      0.484265766163 
      0.253788551928 
     -0.001327376918 
      0.484265613622 
      0.253788656672 
     -0.001327701082 
      0.484265609336 
      0.253788658505 
     -0.001327766673 
      0.001334335268 
     -0.253791476175 
     -0.484272420186 
      0.001333662074 
     -0.253791016957 
     -0.484273522706 
      0.001333573813 
     -0.253790930208 
     -0.484274106605 
     -0.482105976422 
     -0.662242648654 
     -0.778588604584 
     -0.482108745105 
     -0.662240920945 
     -0.778586758948 
     -0.482109700125 
     -0.662239970224 
     -0.778589474234 
     -0.777739076948 
     -0.814307245500 
     -0.773285278602 
     -0.777745039742 
     -0.814306581900 
     -0.773251475998 
     -0.777750690877 
     -0.814302838537 
     -0.773240493148 
     -0.774050331748 
     -0.655196815581 
     -0.475426973832 
     -0.774039269733 
     -0.655236499184 
     -0.475346928774 
     -0.774049881690 
     -0.655248469744 
     -0.475268650957 
     -0.477248362762 
     -0.250209316900 
      0.001574891820 
     -0.476977469992 
     -0.250340564116 
      0.001815221053 
     -0.476731221729 
     -0.250543452798 
      0.001652188497 
      0.001115417564 
     -0.254850530025 
     -0.483578560617 
      0.001668520138 
     -0.254736849674 
     -0.483959063616 
      0.002082072483 
     -0.254665260940 
     -0.483919017001 
     -0.482316672102 
     -0.662159695067 
     -0.778431068370 
     -0.482289275474 
     -0.662137197597 
     -0.778468373036 
     -0.482517878525 
     -0.662085995871 
     -0.778498204199 
     -0.777626141599 
     -0.814318652815 
     -0.773321939402 
     -0.777632806292 
     -0.814315472433 
     -0.773328020048 
     -0.777692897006 
     -0.814311558596 
     -0.773325586928 
     -0.774139695714 
     -0.655388405726 
     -0.474943678156 
     -0.774139186376 
     -0.655387954171 
     -0.474945191759 
     -0.774148251647 
     -0.655388177582 
     -0.474943693479 
     -0.477112563934 
     -0.249553210112 
      0.001341284002 
     -0.477112619639 
     -0.249552930610 
      0.001340798199 
     -0.477113815617 
     -0.249553061750 
      0.001341184610 
     -0.001339016134 
      0.249551701313 
      0.477108371708 
     -0.001339221800 
      0.249551791832 
      0.477108260270 
     -0.001339414555 
      0.249551768495 
      0.477108338845 
      0.474946159333 
      0.655395417827 
      0.774130141581 
      0.474946078795 
      0.655395435854 
      0.774130124946 
      0.474946038417 
      0.655395432210 
      0.774130139030 
      0.773310734306 
      0.814305406279 
      0.777731816150 
      0.773310718862 
      0.814305406502 
      0.777731820510 
      0.773310704895 
      0.814305409381 
      0.777731819802 
      0.778565344467 
      0.662249380152 
      0.482107318532 
      0.778565354188 
      0.662249372146 
      0.482107328203 
      0.778565325651 
      0.662249386509 
      0.482107351391 
      0.484265623062 
      0.253788653226 
     -0.001327795368 
      0.484265656900 
      0.253788638682 
     -0.001327850321 
      0.484265564411 
      0.253788667707 
     -0.001327503120 
      0.001333635272 
     -0.253790944596 
     -0.484274321229 
      0.001333642421 
     -0.253790891321 
     -0.484274825221 
      0.001333468408 
     -0.253791005218 
     -0.484272317983 
     -0.482109470050 
     -0.662239994682 
     -0.778590067324 
     -0.482110119827 
     -0.662239341177 
     -0.778591895053 
     -0.482109204027 
     -0.662241128455 
     -0.778578473589 
     -0.777750844516 
     -0.814302209172 
     -0.773247636103 
     -0.777755291950 
     -0.814299145516 
     -0.773244522635 
     -0.777743617630 
     -0.814312266703 
     -0.773196420807 
     -0.774053764753 
     -0.655242213977 
     -0.475295290173 
     -0.774060020430 
     -0.655252002233 
     -0.475236785219 
     -0.773988813304 
     -0.655313336689 
     -0.475263847858 
     -0.476864680409 
     -0.250479525595 
      0.001444967792 
     -0.476807213290 
     -0.250456589752 
      0.001725923915 
     -0.476621748151 
     -0.250444858400 
      0.000792197142 
      0.001524064481 
     -0.254536160191 
     -0.484170255963 
      0.001419341451 
     -0.254713186021 
     -0.483857188237 
      0.001627960188 
     -0.254699047650 
     -0.483838206568 
     -0.482522891911 
     -0.662090654164 
     -0.778484783998 
     -0.482453868795 
     -0.662100650803 
     -0.778483476928 
     -0.482473782003 
     -0.662088849162 
     -0.778496234621 
     -0.777694559747 
     -0.814312219618 
     -0.773325208615 
     -0.777675487941 
     -0.814312934347 
     -0.773326265307 
     -0.777697806171 
     -0.814306249316 
     -0.773332564195 
     -0.774147860824 
     -0.655388388963 
     -0.474943338214 
     -0.774146301996 
     -0.655387877498 
     -0.474944074182 
     -0.774157268665 
     -0.655386222663 
     -0.474944101161 
     -0.477113549706 
     -0.249553164195 
      0.001341269748 
     -0.477114161264 
     -0.249552929526 
      0.001341166952 
     -0.477116609875 
     -0.249553022064 
      0.001341617977 
     -0.001339309258 
      0.249551752552 
      0.477108348612 
     -0.001339550165 
      0.249551760076 
      0.477108385315 
     -0.001339794239 
      0.249551698477 
      0.477108519635 
      0.474946056577 
      0.655395431789 
      0.774130137094 
      0.474946029679 
      0.655395422359 
      0.774130158712 
      0.474946030268 
      0.655395403882 
      0.774130189992 
      0.773310706309 
      0.814305410134 
      0.777731815921 
      0.773310707137 
      0.814305407008 
      0.777731827980 
      0.773310717034 
      0.814305401692 
      0.777731848015 
      0.778565323783 
      0.662249388990 
      0.482107339711 
      0.778565319575 
      0.662249387416 
      0.482107368754 
      0.778565326984 
      0.662249378489 
      0.482107457478 
      0.484265549765 
      0.253788681092 
     -0.001327552860 
      0.484265551562 
      0.253788661446 
     -0.001327446546 
      0.484265595633 
      0.253788604226 
     -0.001327021770 
      0.001333418681 
     -0.253790953308 
     -0.484272350793 
      0.001333524924 
     -0.253791065861 
     -0.484272156429 
      0.001333861501 
     -0.253791399617 
     -0.484270413719 
     -0.482109415185 
     -0.662240954941 
     -0.778577854932 
     -0.482108850531 
     -0.662241297379 
     -0.778577386592 
     -0.482106641652 
     -0.662242980082 
     -0.778573095312 
     -0.777741953295 
     -0.814313908404 
     -0.773181252569 
     -0.777741605259 
     -0.814313634528 
     -0.773183324219 
     -0.777728944133 
     -0.814322906523 
     -0.773170111583 
     -0.773979031833 
     -0.655324308937 
     -0.475169238376 
     -0.773976635906 
     -0.655332557870 
     -0.475257068870 
     -0.773939730072 
     -0.655343293567 
     -0.475257843087 
     -0.476346041144 
     -0.250654481263 
      0.001288614864 
     -0.476215112265 
     -0.250701099037 
      0.001164932862 
     -0.476440329494 
     -0.250598286898 
      0.001095820450 
SCALARS  HV  double
LOOKUP_TABLE default
      0.000051129466 
      0.000023051014 
      0.000026382174 
     -0.000077091661 
      0.000063027292 
      0.000044619182 
     -0.000139132341 
      0.000002328637 
      0.000076710799 
     -0.000050777146 
      0.000005096057 
     -0.000005617543 
      0.000001883017 
     -0.000003240645 
      0.000004013064 
      0.000045724891 
     -0.000006133191 
      0.000006007151 
     -0.000008409492 
      0.000001228685 
     -0.000000895518 
      0.000003409307 
     -0.000000992084 
      0.000000304006 
      0.000012166140 
     -0.000000140335 
     -0.000001389150 
     -0.000001105590 
      0.000000151883 
     -0.000000128686 
      0.000000805985 
      0.000000080732 
     -0.000000282902 
      0.000001011177 
      0.000000386699 
     -0.000000679458 
     -0.000000225289 
      0.000000014332 
     -0.000000011712 
     -0.000000048603 
      0.000000064913 
     -0.000000080975 
     -0.000000215204 
      0.000000137040 
     -0.000000177633 
     -0.000000048471 
     -0.000000001796 
      0.000000002913 
     -0.000000038971 
      0.000000013012 
     -0.000000014612 
     -0.000000117888 
      0.000000026035 
     -0.000000028630 
     -0.000000001480 
     -0.000000000693 
      0.000000001624 
     -0.000000010038 
      0.000000001807 
     -0.000000002053 
     -0.000000024093 
      0.000000003515 
     -0.000000003517 
     -0.000000000624 
      0.000000000165 
      0.000000001098 
     -0.000000001659 
      0.000000000139 
      0.000000001301 
     -0.000000003932 
      0.000000000752 
     -0.000000003992 
     -0.000000005183 
      0.000000001799 
      0.000000003772 
     -0.000000000646 
     -0.000000000724 
      0.000000008042 
     -0.000000002187 
      0.000000002954 
     -0.000000019383 
     -0.000000022932 
      0.000000006137 
      0.000000055378 
     -0.000000002487 
     -0.000000000355 
      0.000000035908 
     -0.000000011136 
      0.000000011267 
     -0.000000089305 
     -0.000000068149 
      0.000000017729 