# vtk DataFile Version 2.0
NDG-FEM NonhydrostaticStandingWave2d Simulation
ASCII
DATASET UNSTRUCTURED_GRID

POINTS 160 double
0.00000000000000000000  0.00000000000000000000  0.00000000000000000000
1.00000000000000000000  0.00000000000000000000  0.00000000000000000000
0.00000000000000000000  1.00000000000000000000  0.00000000000000000000
1.00000000000000000000  1.00000000000000000000  0.00000000000000000000
1.00000000000000000000  0.00000000000000000000  0.00000000000000000000
2.00000000000000000000  0.00000000000000000000  0.00000000000000000000
1.00000000000000000000  1.00000000000000000000  0.00000000000000000000
2.00000000000000000000  1.00000000000000000000  0.00000000000000000000
2.00000000000000000000  0.00000000000000000000  0.00000000000000000000
3.00000000000000000000  0.00000000000000000000  0.00000000000000000000
2.00000000000000000000  1.00000000000000000000  0.00000000000000000000
3.00000000000000000000  1.00000000000000000000  0.00000000000000000000
3.00000000000000000000  0.00000000000000000000  0.00000000000000000000
4.00000000000000000000  0.00000000000000000000  0.00000000000000000000
3.00000000000000000000  1.00000000000000000000  0.00000000000000000000
4.00000000000000000000  1.00000000000000000000  0.00000000000000000000
4.00000000000000000000  0.00000000000000000000  0.00000000000000000000
5.00000000000000000000  0.00000000000000000000  0.00000000000000000000
4.00000000000000000000  1.00000000000000000000  0.00000000000000000000
5.00000000000000000000  1.00000000000000000000  0.00000000000000000000
5.00000000000000000000  0.00000000000000000000  0.00000000000000000000
6.00000000000000000000  0.00000000000000000000  0.00000000000000000000
5.00000000000000000000  1.00000000000000000000  0.00000000000000000000
6.00000000000000000000  1.00000000000000000000  0.00000000000000000000
6.00000000000000000000  0.00000000000000000000  0.00000000000000000000
7.00000000000000000000  0.00000000000000000000  0.00000000000000000000
6.00000000000000000000  1.00000000000000000000  0.00000000000000000000
7.00000000000000000000  1.00000000000000000000  0.00000000000000000000
7.00000000000000000000  0.00000000000000000000  0.00000000000000000000
8.00000000000000000000  0.00000000000000000000  0.00000000000000000000
7.00000000000000000000  1.00000000000000000000  0.00000000000000000000
8.00000000000000000000  1.00000000000000000000  0.00000000000000000000
8.00000000000000000000  0.00000000000000000000  0.00000000000000000000
9.00000000000000000000  0.00000000000000000000  0.00000000000000000000
8.00000000000000000000  1.00000000000000000000  0.00000000000000000000
9.00000000000000000000  1.00000000000000000000  0.00000000000000000000
9.00000000000000000000  0.00000000000000000000  0.00000000000000000000
10.00000000000000000000  0.00000000000000000000  0.00000000000000000000
9.00000000000000000000  1.00000000000000000000  0.00000000000000000000
10.00000000000000000000  1.00000000000000000000  0.00000000000000000000
10.00000000000000000000  0.00000000000000000000  0.00000000000000000000
11.00000000000000000000  0.00000000000000000000  0.00000000000000000000
10.00000000000000000000  1.00000000000000000000  0.00000000000000000000
11.00000000000000000000  1.00000000000000000000  0.00000000000000000000
11.00000000000000000000  0.00000000000000000000  0.00000000000000000000
12.00000000000000000000  0.00000000000000000000  0.00000000000000000000
11.00000000000000000000  1.00000000000000000000  0.00000000000000000000
12.00000000000000000000  1.00000000000000000000  0.00000000000000000000
12.00000000000000000000  0.00000000000000000000  0.00000000000000000000
13.00000000000000000000  0.00000000000000000000  0.00000000000000000000
12.00000000000000000000  1.00000000000000000000  0.00000000000000000000
13.00000000000000000000  1.00000000000000000000  0.00000000000000000000
13.00000000000000000000  0.00000000000000000000  0.00000000000000000000
14.00000000000000000000  0.00000000000000000000  0.00000000000000000000
13.00000000000000000000  1.00000000000000000000  0.00000000000000000000
14.00000000000000000000  1.00000000000000000000  0.00000000000000000000
14.00000000000000000000  0.00000000000000000000  0.00000000000000000000
15.00000000000000000000  0.00000000000000000000  0.00000000000000000000
14.00000000000000000000  1.00000000000000000000  0.00000000000000000000
15.00000000000000000000  1.00000000000000000000  0.00000000000000000000
15.00000000000000000000  0.00000000000000000000  0.00000000000000000000
16.00000000000000000000  0.00000000000000000000  0.00000000000000000000
15.00000000000000000000  1.00000000000000000000  0.00000000000000000000
16.00000000000000000000  1.00000000000000000000  0.00000000000000000000
16.00000000000000000000  0.00000000000000000000  0.00000000000000000000
17.00000000000000000000  0.00000000000000000000  0.00000000000000000000
16.00000000000000000000  1.00000000000000000000  0.00000000000000000000
17.00000000000000000000  1.00000000000000000000  0.00000000000000000000
17.00000000000000000000  0.00000000000000000000  0.00000000000000000000
18.00000000000000000000  0.00000000000000000000  0.00000000000000000000
17.00000000000000000000  1.00000000000000000000  0.00000000000000000000
18.00000000000000000000  1.00000000000000000000  0.00000000000000000000
18.00000000000000000000  0.00000000000000000000  0.00000000000000000000
19.00000000000000000000  0.00000000000000000000  0.00000000000000000000
18.00000000000000000000  1.00000000000000000000  0.00000000000000000000
19.00000000000000000000  1.00000000000000000000  0.00000000000000000000
19.00000000000000000000  0.00000000000000000000  0.00000000000000000000
20.00000000000000000000  0.00000000000000000000  0.00000000000000000000
19.00000000000000000000  1.00000000000000000000  0.00000000000000000000
20.00000000000000000000  1.00000000000000000000  0.00000000000000000000
0.00000000000000000000  1.00000000000000000000  0.00000000000000000000
1.00000000000000000000  1.00000000000000000000  0.00000000000000000000
0.00000000000000000000  2.00000000000000000000  0.00000000000000000000
1.00000000000000000000  2.00000000000000000000  0.00000000000000000000
1.00000000000000000000  1.00000000000000000000  0.00000000000000000000
2.00000000000000000000  1.00000000000000000000  0.00000000000000000000
1.00000000000000000000  2.00000000000000000000  0.00000000000000000000
2.00000000000000000000  2.00000000000000000000  0.00000000000000000000
2.00000000000000000000  1.00000000000000000000  0.00000000000000000000
3.00000000000000000000  1.00000000000000000000  0.00000000000000000000
2.00000000000000000000  2.00000000000000000000  0.00000000000000000000
3.00000000000000000000  2.00000000000000000000  0.00000000000000000000
3.00000000000000000000  1.00000000000000000000  0.00000000000000000000
4.00000000000000000000  1.00000000000000000000  0.00000000000000000000
3.00000000000000000000  2.00000000000000000000  0.00000000000000000000
4.00000000000000000000  2.00000000000000000000  0.00000000000000000000
4.00000000000000000000  1.00000000000000000000  0.00000000000000000000
5.00000000000000000000  1.00000000000000000000  0.00000000000000000000
4.00000000000000000000  2.00000000000000000000  0.00000000000000000000
5.00000000000000000000  2.00000000000000000000  0.00000000000000000000
5.00000000000000000000  1.00000000000000000000  0.00000000000000000000
6.00000000000000000000  1.00000000000000000000  0.00000000000000000000
5.00000000000000000000  2.00000000000000000000  0.00000000000000000000
6.00000000000000000000  2.00000000000000000000  0.00000000000000000000
6.00000000000000000000  1.00000000000000000000  0.00000000000000000000
7.00000000000000000000  1.00000000000000000000  0.00000000000000000000
6.00000000000000000000  2.00000000000000000000  0.00000000000000000000
7.00000000000000000000  2.00000000000000000000  0.00000000000000000000
7.00000000000000000000  1.00000000000000000000  0.00000000000000000000
8.00000000000000000000  1.00000000000000000000  0.00000000000000000000
7.00000000000000000000  2.00000000000000000000  0.00000000000000000000
8.00000000000000000000  2.00000000000000000000  0.00000000000000000000
8.00000000000000000000  1.00000000000000000000  0.00000000000000000000
9.00000000000000000000  1.00000000000000000000  0.00000000000000000000
8.00000000000000000000  2.00000000000000000000  0.00000000000000000000
9.00000000000000000000  2.00000000000000000000  0.00000000000000000000
9.00000000000000000000  1.00000000000000000000  0.00000000000000000000
10.00000000000000000000  1.00000000000000000000  0.00000000000000000000
9.00000000000000000000  2.00000000000000000000  0.00000000000000000000
10.00000000000000000000  2.00000000000000000000  0.00000000000000000000
10.00000000000000000000  1.00000000000000000000  0.00000000000000000000
11.00000000000000000000  1.00000000000000000000  0.00000000000000000000
10.00000000000000000000  2.00000000000000000000  0.00000000000000000000
11.00000000000000000000  2.00000000000000000000  0.00000000000000000000
11.00000000000000000000  1.00000000000000000000  0.00000000000000000000
12.00000000000000000000  1.00000000000000000000  0.00000000000000000000
11.00000000000000000000  2.00000000000000000000  0.00000000000000000000
12.00000000000000000000  2.00000000000000000000  0.00000000000000000000
12.00000000000000000000  1.00000000000000000000  0.00000000000000000000
13.00000000000000000000  1.00000000000000000000  0.00000000000000000000
12.00000000000000000000  2.00000000000000000000  0.00000000000000000000
13.00000000000000000000  2.00000000000000000000  0.00000000000000000000
13.00000000000000000000  1.00000000000000000000  0.00000000000000000000
14.00000000000000000000  1.00000000000000000000  0.00000000000000000000
13.00000000000000000000  2.00000000000000000000  0.00000000000000000000
14.00000000000000000000  2.00000000000000000000  0.00000000000000000000
14.00000000000000000000  1.00000000000000000000  0.00000000000000000000
15.00000000000000000000  1.00000000000000000000  0.00000000000000000000
14.00000000000000000000  2.00000000000000000000  0.00000000000000000000
15.00000000000000000000  2.00000000000000000000  0.00000000000000000000
15.00000000000000000000  1.00000000000000000000  0.00000000000000000000
16.00000000000000000000  1.00000000000000000000  0.00000000000000000000
15.00000000000000000000  2.00000000000000000000  0.00000000000000000000
16.00000000000000000000  2.00000000000000000000  0.00000000000000000000
16.00000000000000000000  1.00000000000000000000  0.00000000000000000000
17.00000000000000000000  1.00000000000000000000  0.00000000000000000000
16.00000000000000000000  2.00000000000000000000  0.00000000000000000000
17.00000000000000000000  2.00000000000000000000  0.00000000000000000000
17.00000000000000000000  1.00000000000000000000  0.00000000000000000000
18.00000000000000000000  1.00000000000000000000  0.00000000000000000000
17.00000000000000000000  2.00000000000000000000  0.00000000000000000000
18.00000000000000000000  2.00000000000000000000  0.00000000000000000000
18.00000000000000000000  1.00000000000000000000  0.00000000000000000000
19.00000000000000000000  1.00000000000000000000  0.00000000000000000000
18.00000000000000000000  2.00000000000000000000  0.00000000000000000000
19.00000000000000000000  2.00000000000000000000  0.00000000000000000000
19.00000000000000000000  1.00000000000000000000  0.00000000000000000000
20.00000000000000000000  1.00000000000000000000  0.00000000000000000000
19.00000000000000000000  2.00000000000000000000  0.00000000000000000000
20.00000000000000000000  2.00000000000000000000  0.00000000000000000000

CELLS 40 200
4 0 1 3 2 
4 4 5 7 6 
4 8 9 11 10 
4 12 13 15 14 
4 16 17 19 18 
4 20 21 23 22 
4 24 25 27 26 
4 28 29 31 30 
4 32 33 35 34 
4 36 37 39 38 
4 40 41 43 42 
4 44 45 47 46 
4 48 49 51 50 
4 52 53 55 54 
4 56 57 59 58 
4 60 61 63 62 
4 64 65 67 66 
4 68 69 71 70 
4 72 73 75 74 
4 76 77 79 78 
4 80 81 83 82 
4 84 85 87 86 
4 88 89 91 90 
4 92 93 95 94 
4 96 97 99 98 
4 100 101 103 102 
4 104 105 107 106 
4 108 109 111 110 
4 112 113 115 114 
4 116 117 119 118 
4 120 121 123 122 
4 124 125 127 126 
4 128 129 131 130 
4 132 133 135 134 
4 136 137 139 138 
4 140 141 143 142 
4 144 145 147 146 
4 148 149 151 150 
4 152 153 155 154 
4 156 157 159 158 

CELL_TYPES 40
9 9 9 9 9 9 9 9 9 9 9 9 
9 9 9 9 9 9 9 9 9 9 9 9 
9 9 9 9 9 9 9 9 9 9 9 9 
9 9 9 9 

POINT_DATA 160
SCALARS  H  double
LOOKUP_TABLE default
      7.555888821372 
      7.555133297383 
      7.555888821372 
      7.555133297383 
      7.555093735725 
      7.564657908466 
      7.555093735725 
      7.564657908466 
      7.564147480173 
      7.577473215176 
      7.564147480173 
      7.577473215176 
      7.576877979893 
      7.593977006974 
      7.576877979893 
      7.593977006974 
      7.593260499174 
      7.612190067620 
      7.593260499174 
      7.612190067620 
      7.611445891941 
      7.630421385817 
      7.611445891941 
      7.630421385817 
      7.629716895237 
      7.646865458327 
      7.629716895237 
      7.646865458327 
      7.646268059229 
      7.659895066405 
      7.646268059229 
      7.659895066405 
      7.659457128198 
      7.668249809723 
      7.659457128198 
      7.668249809723 
      7.667960179791 
      7.671020113374 
      7.667960179791 
      7.671020113374 
      7.671020113374 
      7.667960179791 
      7.671020113374 
      7.667960179791 
      7.668249809723 
      7.659457128198 
      7.668249809723 
      7.659457128198 
      7.659895066405 
      7.646268059229 
      7.659895066405 
      7.646268059229 
      7.646865458327 
      7.629716895237 
      7.646865458327 
      7.629716895237 
      7.630421385817 
      7.611445891941 
      7.630421385817 
      7.611445891941 
      7.612190067620 
      7.593260499174 
      7.612190067620 
      7.593260499174 
      7.593977006974 
      7.576877979893 
      7.593977006974 
      7.576877979893 
      7.577473215176 
      7.564147480173 
      7.577473215176 
      7.564147480173 
      7.564657908466 
      7.555093735725 
      7.564657908466 
      7.555093735725 
      7.555133297383 
      7.555888821372 
      7.555133297383 
      7.555888821372 
      7.555888821372 
      7.555133297383 
      7.555888821372 
      7.555133297383 
      7.555093735725 
      7.564657908466 
      7.555093735725 
      7.564657908466 
      7.564147480173 
      7.577473215176 
      7.564147480173 
      7.577473215176 
      7.576877979893 
      7.593977006974 
      7.576877979893 
      7.593977006974 
      7.593260499174 
      7.612190067620 
      7.593260499174 
      7.612190067620 
      7.611445891941 
      7.630421385817 
      7.611445891941 
      7.630421385817 
      7.629716895237 
      7.646865458327 
      7.629716895237 
      7.646865458327 
      7.646268059229 
      7.659895066405 
      7.646268059229 
      7.659895066405 
      7.659457128198 
      7.668249809723 
      7.659457128198 
      7.668249809723 
      7.667960179791 
      7.671020113374 
      7.667960179791 
      7.671020113374 
      7.671020113374 
      7.667960179791 
      7.671020113374 
      7.667960179791 
      7.668249809723 
      7.659457128198 
      7.668249809723 
      7.659457128198 
      7.659895066405 
      7.646268059229 
      7.659895066405 
      7.646268059229 
      7.646865458327 
      7.629716895237 
      7.646865458327 
      7.629716895237 
      7.630421385817 
      7.611445891941 
      7.630421385817 
      7.611445891941 
      7.612190067620 
      7.593260499174 
      7.612190067620 
      7.593260499174 
      7.593977006974 
      7.576877979893 
      7.593977006974 
      7.576877979893 
      7.577473215176 
      7.564147480173 
      7.577473215176 
      7.564147480173 
      7.564657908466 
      7.555093735725 
      7.564657908466 
      7.555093735725 
      7.555133297383 
      7.555888821372 
      7.555133297383 
      7.555888821372 
SCALARS  HU  double
LOOKUP_TABLE default
     -0.002523916084 
     -0.132961687270 
     -0.002523916084 
     -0.132961687270 
     -0.139062864310 
     -0.261682684914 
     -0.139062864310 
     -0.261682684914 
     -0.265050059197 
     -0.360715612661 
     -0.265050059197 
     -0.360715612661 
     -0.363538618316 
     -0.425010515031 
     -0.363538618316 
     -0.425010515031 
     -0.426248805573 
     -0.447189668155 
     -0.426248805573 
     -0.447189668155 
     -0.446912502011 
     -0.425582254893 
     -0.446912502011 
     -0.425582254893 
     -0.423788275382 
     -0.362426865781 
     -0.423788275382 
     -0.362426865781 
     -0.359316606787 
     -0.264035062794 
     -0.359316606787 
     -0.264035062794 
     -0.259967066592 
     -0.139998655292 
     -0.259967066592 
     -0.139998655292 
     -0.135850526964 
     -0.001931494189 
     -0.135850526964 
     -0.001931494189 
      0.001931494189 
      0.135850526964 
      0.001931494189 
      0.135850526964 
      0.139998655292 
      0.259967066592 
      0.139998655292 
      0.259967066592 
      0.264035062794 
      0.359316606787 
      0.264035062794 
      0.359316606787 
      0.362426865781 
      0.423788275382 
      0.362426865781 
      0.423788275382 
      0.425582254893 
      0.446912502011 
      0.425582254893 
      0.446912502011 
      0.447189668155 
      0.426248805573 
      0.447189668155 
      0.426248805573 
      0.425010515031 
      0.363538618316 
      0.425010515031 
      0.363538618316 
      0.360715612661 
      0.265050059197 
      0.360715612661 
      0.265050059197 
      0.261682684914 
      0.139062864310 
      0.261682684914 
      0.139062864310 
      0.132961687270 
      0.002523916084 
      0.132961687270 
      0.002523916084 
     -0.002523916084 
     -0.132961687270 
     -0.002523916084 
     -0.132961687270 
     -0.139062864310 
     -0.261682684914 
     -0.139062864310 
     -0.261682684914 
     -0.265050059197 
     -0.360715612661 
     -0.265050059197 
     -0.360715612661 
     -0.363538618316 
     -0.425010515031 
     -0.363538618316 
     -0.425010515031 
     -0.426248805573 
     -0.447189668155 
     -0.426248805573 
     -0.447189668155 
     -0.446912502011 
     -0.425582254893 
     -0.446912502011 
     -0.425582254893 
     -0.423788275382 
     -0.362426865781 
     -0.423788275382 
     -0.362426865781 
     -0.359316606787 
     -0.264035062794 
     -0.359316606787 
     -0.264035062794 
     -0.259967066592 
     -0.139998655292 
     -0.259967066592 
     -0.139998655292 
     -0.135850526964 
     -0.001931494189 
     -0.135850526964 
     -0.001931494189 
      0.001931494189 
      0.135850526964 
      0.001931494189 
      0.135850526964 
      0.139998655292 
      0.259967066592 
      0.139998655292 
      0.259967066592 
      0.264035062794 
      0.359316606787 
      0.264035062794 
      0.359316606787 
      0.362426865781 
      0.423788275382 
      0.362426865781 
      0.423788275382 
      0.425582254893 
      0.446912502011 
      0.425582254893 
      0.446912502011 
      0.447189668155 
      0.426248805573 
      0.447189668155 
      0.426248805573 
      0.425010515031 
      0.363538618316 
      0.425010515031 
      0.363538618316 
      0.360715612661 
      0.265050059197 
      0.360715612661 
      0.265050059197 
      0.261682684914 
      0.139062864310 
      0.261682684914 
      0.139062864310 
      0.132961687270 
      0.002523916084 
      0.132961687270 
      0.002523916084 
SCALARS  HV  double
LOOKUP_TABLE default
     -0.000000000000 
     -0.000000000000 
      0.000000000000 
      0.000000000000 
      0.000000000000 
     -0.000000000000 
      0.000000000000 
      0.000000000000 
     -0.000000000000 
     -0.000000000000 
     -0.000000000000 
     -0.000000000000 
     -0.000000000000 
     -0.000000000000 
     -0.000000000000 
      0.000000000000 
     -0.000000000000 
     -0.000000000000 
      0.000000000000 
      0.000000000000 
     -0.000000000000 
      0.000000000000 
      0.000000000000 
     -0.000000000000 
      0.000000000000 
      0.000000000000 
     -0.000000000000 
     -0.000000000000 
      0.000000000000 
      0.000000000000 
     -0.000000000000 
     -0.000000000000 
      0.000000000000 
      0.000000000000 
     -0.000000000000 
      0.000000000000 
     -0.000000000000 
     -0.000000000000 
     -0.000000000000 
      0.000000000000 
     -0.000000000000 
      0.000000000000 
      0.000000000000 
     -0.000000000000 
      0.000000000000 
     -0.000000000000 
     -0.000000000000 
     -0.000000000000 
     -0.000000000000 
      0.000000000000 
      0.000000000000 
     -0.000000000000 
     -0.000000000000 
     -0.000000000000 
     -0.000000000000 
     -0.000000000000 
      0.000000000000 
     -0.000000000000 
     -0.000000000000 
     -0.000000000000 
     -0.000000000000 
     -0.000000000000 
     -0.000000000000 
     -0.000000000000 
     -0.000000000000 
      0.000000000000 
     -0.000000000000 
      0.000000000000 
      0.000000000000 
     -0.000000000000 
     -0.000000000000 
      0.000000000000 
     -0.000000000000 
      0.000000000000 
      0.000000000000 
     -0.000000000000 
      0.000000000000 
      0.000000000000 
     -0.000000000000 
     -0.000000000000 
      0.000000000000 
      0.000000000000 
      0.000000000000 
      0.000000000000 
     -0.000000000000 
      0.000000000000 
      0.000000000000 
     -0.000000000000 
      0.000000000000 
     -0.000000000000 
     -0.000000000000 
     -0.000000000000 
     -0.000000000000 
     -0.000000000000 
     -0.000000000000 
     -0.000000000000 
     -0.000000000000 
     -0.000000000000 
     -0.000000000000 
     -0.000000000000 
     -0.000000000000 
      0.000000000000 
      0.000000000000 
     -0.000000000000 
      0.000000000000 
      0.000000000000 
     -0.000000000000 
      0.000000000000 
      0.000000000000 
      0.000000000000 
     -0.000000000000 
      0.000000000000 
      0.000000000000 
     -0.000000000000 
      0.000000000000 
     -0.000000000000 
     -0.000000000000 
      0.000000000000 
     -0.000000000000 
      0.000000000000 
      0.000000000000 
     -0.000000000000 
      0.000000000000 
      0.000000000000 
     -0.000000000000 
     -0.000000000000 
     -0.000000000000 
     -0.000000000000 
     -0.000000000000 
      0.000000000000 
     -0.000000000000 
      0.000000000000 
      0.000000000000 
      0.000000000000 
      0.000000000000 
     -0.000000000000 
      0.000000000000 
     -0.000000000000 
     -0.000000000000 
     -0.000000000000 
     -0.000000000000 
     -0.000000000000 
     -0.000000000000 
     -0.000000000000 
     -0.000000000000 
      0.000000000000 
     -0.000000000000 
     -0.000000000000 
      0.000000000000 
     -0.000000000000 
     -0.000000000000 
      0.000000000000 
     -0.000000000000 
      0.000000000000 
      0.000000000000 
     -0.000000000000 
      0.000000000000 
      0.000000000000 
     -0.000000000000 
      0.000000000000 
SCALARS  HW  double
LOOKUP_TABLE default
      0.503534170826 
      0.520587428165 
      0.503534170826 
      0.520587428165 
      0.514078220701 
      0.431436464874 
      0.514078220701 
      0.431436464874 
      0.427002084507 
      0.313483215097 
      0.427002084507 
      0.313483215097 
      0.309217402896 
      0.161483322063 
      0.309217402896 
      0.161483322063 
      0.158681391261 
     -0.005234756868 
      0.158681391261 
     -0.005234756868 
     -0.006411306253 
     -0.171167769118 
     -0.006411306253 
     -0.171167769118 
     -0.170684824650 
     -0.319992815406 
     -0.170684824650 
     -0.319992815406 
     -0.318164910645 
     -0.437391020555 
     -0.318164910645 
     -0.437391020555 
     -0.434712517206 
     -0.512878955643 
     -0.434712517206 
     -0.512878955643 
     -0.509918781245 
     -0.537737666799 
     -0.509918781245 
     -0.537737666799 
     -0.537737666799 
     -0.509918781245 
     -0.537737666799 
     -0.509918781245 
     -0.512878955643 
     -0.434712517206 
     -0.512878955643 
     -0.434712517206 
     -0.437391020555 
     -0.318164910645 
     -0.437391020555 
     -0.318164910645 
     -0.319992815406 
     -0.170684824650 
     -0.319992815406 
     -0.170684824650 
     -0.171167769118 
     -0.006411306253 
     -0.171167769118 
     -0.006411306253 
     -0.005234756868 
      0.158681391261 
     -0.005234756868 
      0.158681391261 
      0.161483322063 
      0.309217402896 
      0.161483322063 
      0.309217402896 
      0.313483215097 
      0.427002084507 
      0.313483215097 
      0.427002084507 
      0.431436464874 
      0.514078220701 
      0.431436464874 
      0.514078220701 
      0.520587428165 
      0.503534170826 
      0.520587428165 
      0.503534170826 
      0.503534170826 
      0.520587428165 
      0.503534170826 
      0.520587428165 
      0.514078220701 
      0.431436464874 
      0.514078220701 
      0.431436464874 
      0.427002084507 
      0.313483215097 
      0.427002084507 
      0.313483215097 
      0.309217402896 
      0.161483322063 
      0.309217402896 
      0.161483322063 
      0.158681391261 
     -0.005234756868 
      0.158681391261 
     -0.005234756868 
     -0.006411306253 
     -0.171167769118 
     -0.006411306253 
     -0.171167769118 
     -0.170684824650 
     -0.319992815406 
     -0.170684824650 
     -0.319992815406 
     -0.318164910645 
     -0.437391020555 
     -0.318164910645 
     -0.437391020555 
     -0.434712517206 
     -0.512878955643 
     -0.434712517206 
     -0.512878955643 
     -0.509918781245 
     -0.537737666799 
     -0.509918781245 
     -0.537737666799 
     -0.537737666799 
     -0.509918781245 
     -0.537737666799 
     -0.509918781245 
     -0.512878955643 
     -0.434712517206 
     -0.512878955643 
     -0.434712517206 
     -0.437391020555 
     -0.318164910645 
     -0.437391020555 
     -0.318164910645 
     -0.319992815406 
     -0.170684824650 
     -0.319992815406 
     -0.170684824650 
     -0.171167769118 
     -0.006411306253 
     -0.171167769118 
     -0.006411306253 
     -0.005234756868 
      0.158681391261 
     -0.005234756868 
      0.158681391261 
      0.161483322063 
      0.309217402896 
      0.161483322063 
      0.309217402896 
      0.313483215097 
      0.427002084507 
      0.313483215097 
      0.427002084507 
      0.431436464874 
      0.514078220701 
      0.431436464874 
      0.514078220701 
      0.520587428165 
      0.503534170826 
      0.520587428165 
      0.503534170826 
SCALARS  q  double
LOOKUP_TABLE default
      0.316771429201 
      0.336816074243 
      0.316771429201 
      0.336816074243 
      0.332462481390 
      0.279104587088 
      0.332462481390 
      0.279104587088 
      0.276018713314 
      0.205488878837 
      0.276018713314 
      0.205488878837 
      0.202114770980 
      0.109875515724 
      0.202114770980 
      0.109875515724 
      0.106960881638 
      0.004435777288 
      0.106960881638 
      0.004435777288 
      0.002178940520 
     -0.101177266690 
      0.002178940520 
     -0.101177266690 
     -0.102536918110 
     -0.196539852277 
     -0.102536918110 
     -0.196539852277 
     -0.196876674825 
     -0.272291718868 
     -0.196876674825 
     -0.272291718868 
     -0.271607007220 
     -0.321310440473 
     -0.271607007220 
     -0.321310440473 
     -0.319816486310 
     -0.337567904963 
     -0.319816486310 
     -0.337567904963 
     -0.337567904963 
     -0.319816486310 
     -0.337567904963 
     -0.319816486310 
     -0.321310440473 
     -0.271607007220 
     -0.321310440473 
     -0.271607007220 
     -0.272291718868 
     -0.196876674825 
     -0.272291718868 
     -0.196876674825 
     -0.196539852276 
     -0.102536918110 
     -0.196539852277 
     -0.102536918110 
     -0.101177266690 
      0.002178940520 
     -0.101177266690 
      0.002178940521 
      0.004435777288 
      0.106960881638 
      0.004435777288 
      0.106960881638 
      0.109875515724 
      0.202114770980 
      0.109875515724 
      0.202114770980 
      0.205488878837 
      0.276018713314 
      0.205488878837 
      0.276018713314 
      0.279104587088 
      0.332462481391 
      0.279104587088 
      0.332462481391 
      0.336816074243 
      0.316771429201 
      0.336816074243 
      0.316771429201 
      0.316771429201 
      0.336816074243 
      0.316771429201 
      0.336816074243 
      0.332462481390 
      0.279104587088 
      0.332462481390 
      0.279104587088 
      0.276018713314 
      0.205488878837 
      0.276018713314 
      0.205488878837 
      0.202114770980 
      0.109875515724 
      0.202114770980 
      0.109875515724 
      0.106960881638 
      0.004435777288 
      0.106960881638 
      0.004435777288 
      0.002178940520 
     -0.101177266690 
      0.002178940520 
     -0.101177266690 
     -0.102536918110 
     -0.196539852277 
     -0.102536918110 
     -0.196539852277 
     -0.196876674825 
     -0.272291718868 
     -0.196876674825 
     -0.272291718868 
     -0.271607007220 
     -0.321310440473 
     -0.271607007220 
     -0.321310440473 
     -0.319816486310 
     -0.337567904963 
     -0.319816486310 
     -0.337567904963 
     -0.337567904963 
     -0.319816486310 
     -0.337567904963 
     -0.319816486310 
     -0.321310440473 
     -0.271607007220 
     -0.321310440473 
     -0.271607007220 
     -0.272291718868 
     -0.196876674825 
     -0.272291718868 
     -0.196876674825 
     -0.196539852277 
     -0.102536918110 
     -0.196539852276 
     -0.102536918110 
     -0.101177266690 
      0.002178940521 
     -0.101177266690 
      0.002178940520 
      0.004435777288 
      0.106960881638 
      0.004435777288 
      0.106960881638 
      0.109875515724 
      0.202114770980 
      0.109875515724 
      0.202114770980 
      0.205488878837 
      0.276018713314 
      0.205488878837 
      0.276018713314 
      0.279104587088 